V -t * -v 1.0a5 -a 0
A -t * -n 1 -p 0 -o 0x7fffffff -c 30 -a 1
A -t * -h 1 -m 1073741823 -s 0
c -t * -i 1 -n Blue
c -t * -i 2 -n Red
n -t * -a 4 -s 4 -S UP -v circle -c black -i black
n -t * -a 0 -s 0 -S UP -v circle -c black -i black
n -t * -a 5 -s 5 -S UP -v circle -c black -i black
n -t * -a 1 -s 1 -S UP -v circle -c black -i black
n -t * -a 2 -s 2 -S UP -v circle -c black -i black
n -t * -a 3 -s 3 -S UP -v circle -c black -i black
l -t * -s 0 -d 1 -S UP -r 5000000 -D 0.01 -c black
l -t * -s 2 -d 1 -S UP -r 5000000 -D 0.01 -c black
l -t * -s 3 -d 4 -S UP -r 5000000 -D 0.01 -c black
l -t * -s 5 -d 4 -S UP -r 5000000 -D 0.01 -c black
l -t * -s 1 -d 4 -S UP -r 500000 -D 0.040000000000000001 -c black
q -t * -s 4 -d 1 -a 0.5
q -t * -s 1 -d 4 -a 0.5
+ -t 0.000169788487334637 -s 0 -d 1 -p rtProtoDV -e 6 -c 0 -i 0 -a 0 -x {0.2 1.1 -1 ------- null}
- -t 0.000169788487334637 -s 0 -d 1 -p rtProtoDV -e 6 -c 0 -i 0 -a 0 -x {0.2 1.1 -1 ------- null}
h -t 0.000169788487334637 -s 0 -d 1 -p rtProtoDV -e 6 -c 0 -i 0 -a 0 -x {0.2 1.1 -1 ------- null}
+ -t 0.00710233021858257 -s 2 -d 1 -p rtProtoDV -e 6 -c 0 -i 1 -a 0 -x {2.2 1.1 -1 ------- null}
- -t 0.00710233021858257 -s 2 -d 1 -p rtProtoDV -e 6 -c 0 -i 1 -a 0 -x {2.2 1.1 -1 ------- null}
h -t 0.00710233021858257 -s 2 -d 1 -p rtProtoDV -e 6 -c 0 -i 1 -a 0 -x {2.2 1.1 -1 ------- null}
r -t 0.0101793884873346 -s 0 -d 1 -p rtProtoDV -e 6 -c 0 -i 0 -a 0 -x {0.2 1.1 -1 ------- null}
r -t 0.0171119302185826 -s 2 -d 1 -p rtProtoDV -e 6 -c 0 -i 1 -a 0 -x {2.2 1.1 -1 ------- null}
+ -t 0.04406133552271 -s 3 -d 4 -p rtProtoDV -e 6 -c 0 -i 2 -a 0 -x {3.2 4.1 -1 ------- null}
- -t 0.04406133552271 -s 3 -d 4 -p rtProtoDV -e 6 -c 0 -i 2 -a 0 -x {3.2 4.1 -1 ------- null}
h -t 0.04406133552271 -s 3 -d 4 -p rtProtoDV -e 6 -c 0 -i 2 -a 0 -x {3.2 4.1 -1 ------- null}
r -t 0.05407093552271 -s 3 -d 4 -p rtProtoDV -e 6 -c 0 -i 2 -a 0 -x {3.2 4.1 -1 ------- null}
+ -t 0.22058669092161 -s 4 -d 1 -p rtProtoDV -e 6 -c 0 -i 4 -a 0 -x {4.1 1.1 -1 ------- null}
- -t 0.22058669092161 -s 4 -d 1 -p rtProtoDV -e 6 -c 0 -i 4 -a 0 -x {4.1 1.1 -1 ------- null}
h -t 0.22058669092161 -s 4 -d 1 -p rtProtoDV -e 6 -c 0 -i 4 -a 0 -x {4.1 1.1 -1 ------- null}
+ -t 0.22058669092161 -s 4 -d 3 -p rtProtoDV -e 6 -c 0 -i 5 -a 0 -x {4.1 3.2 -1 ------- null}
- -t 0.22058669092161 -s 4 -d 3 -p rtProtoDV -e 6 -c 0 -i 5 -a 0 -x {4.1 3.2 -1 ------- null}
h -t 0.22058669092161 -s 4 -d 3 -p rtProtoDV -e 6 -c 0 -i 5 -a 0 -x {4.1 3.2 -1 ------- null}
+ -t 0.22058669092161 -s 4 -d 5 -p rtProtoDV -e 6 -c 0 -i 6 -a 0 -x {4.1 5.2 -1 ------- null}
- -t 0.22058669092161 -s 4 -d 5 -p rtProtoDV -e 6 -c 0 -i 6 -a 0 -x {4.1 5.2 -1 ------- null}
h -t 0.22058669092161 -s 4 -d 5 -p rtProtoDV -e 6 -c 0 -i 6 -a 0 -x {4.1 5.2 -1 ------- null}
r -t 0.23059629092161 -s 4 -d 3 -p rtProtoDV -e 6 -c 0 -i 5 -a 0 -x {4.1 3.2 -1 ------- null}
+ -t 0.23059629092161 -s 3 -d 4 -p rtProtoDV -e 6 -c 0 -i 7 -a 0 -x {3.2 4.1 -1 ------- null}
- -t 0.23059629092161 -s 3 -d 4 -p rtProtoDV -e 6 -c 0 -i 7 -a 0 -x {3.2 4.1 -1 ------- null}
h -t 0.23059629092161 -s 3 -d 4 -p rtProtoDV -e 6 -c 0 -i 7 -a 0 -x {3.2 4.1 -1 ------- null}
r -t 0.23059629092161 -s 4 -d 5 -p rtProtoDV -e 6 -c 0 -i 6 -a 0 -x {4.1 5.2 -1 ------- null}
+ -t 0.23059629092161 -s 5 -d 4 -p rtProtoDV -e 6 -c 0 -i 8 -a 0 -x {5.2 4.1 -1 ------- null}
- -t 0.23059629092161 -s 5 -d 4 -p rtProtoDV -e 6 -c 0 -i 8 -a 0 -x {5.2 4.1 -1 ------- null}
h -t 0.23059629092161 -s 5 -d 4 -p rtProtoDV -e 6 -c 0 -i 8 -a 0 -x {5.2 4.1 -1 ------- null}
r -t 0.24060589092161 -s 3 -d 4 -p rtProtoDV -e 6 -c 0 -i 7 -a 0 -x {3.2 4.1 -1 ------- null}
r -t 0.24060589092161 -s 5 -d 4 -p rtProtoDV -e 6 -c 0 -i 8 -a 0 -x {5.2 4.1 -1 ------- null}
r -t 0.26068269092161 -s 4 -d 1 -p rtProtoDV -e 6 -c 0 -i 4 -a 0 -x {4.1 1.1 -1 ------- null}
+ -t 0.26068269092161 -s 1 -d 0 -p rtProtoDV -e 6 -c 0 -i 9 -a 0 -x {1.1 0.2 -1 ------- null}
- -t 0.26068269092161 -s 1 -d 0 -p rtProtoDV -e 6 -c 0 -i 9 -a 0 -x {1.1 0.2 -1 ------- null}
h -t 0.26068269092161 -s 1 -d 0 -p rtProtoDV -e 6 -c 0 -i 9 -a 0 -x {1.1 0.2 -1 ------- null}
+ -t 0.26068269092161 -s 1 -d 2 -p rtProtoDV -e 6 -c 0 -i 10 -a 0 -x {1.1 2.2 -1 ------- null}
- -t 0.26068269092161 -s 1 -d 2 -p rtProtoDV -e 6 -c 0 -i 10 -a 0 -x {1.1 2.2 -1 ------- null}
h -t 0.26068269092161 -s 1 -d 2 -p rtProtoDV -e 6 -c 0 -i 10 -a 0 -x {1.1 2.2 -1 ------- null}
+ -t 0.26068269092161 -s 1 -d 4 -p rtProtoDV -e 6 -c 0 -i 11 -a 0 -x {1.1 4.1 -1 ------- null}
- -t 0.26068269092161 -s 1 -d 4 -p rtProtoDV -e 6 -c 0 -i 11 -a 0 -x {1.1 4.1 -1 ------- null}
h -t 0.26068269092161 -s 1 -d 4 -p rtProtoDV -e 6 -c 0 -i 11 -a 0 -x {1.1 4.1 -1 ------- null}
r -t 0.27069229092161 -s 1 -d 0 -p rtProtoDV -e 6 -c 0 -i 9 -a 0 -x {1.1 0.2 -1 ------- null}
+ -t 0.27069229092161 -s 0 -d 1 -p rtProtoDV -e 6 -c 0 -i 12 -a 0 -x {0.2 1.1 -1 ------- null}
- -t 0.27069229092161 -s 0 -d 1 -p rtProtoDV -e 6 -c 0 -i 12 -a 0 -x {0.2 1.1 -1 ------- null}
h -t 0.27069229092161 -s 0 -d 1 -p rtProtoDV -e 6 -c 0 -i 12 -a 0 -x {0.2 1.1 -1 ------- null}
r -t 0.27069229092161 -s 1 -d 2 -p rtProtoDV -e 6 -c 0 -i 10 -a 0 -x {1.1 2.2 -1 ------- null}
+ -t 0.27069229092161 -s 2 -d 1 -p rtProtoDV -e 6 -c 0 -i 13 -a 0 -x {2.2 1.1 -1 ------- null}
- -t 0.27069229092161 -s 2 -d 1 -p rtProtoDV -e 6 -c 0 -i 13 -a 0 -x {2.2 1.1 -1 ------- null}
h -t 0.27069229092161 -s 2 -d 1 -p rtProtoDV -e 6 -c 0 -i 13 -a 0 -x {2.2 1.1 -1 ------- null}
+ -t 0.277940357931862 -s 1 -d 0 -p rtProtoDV -e 6 -c 0 -i 14 -a 0 -x {1.1 0.2 -1 ------- null}
- -t 0.277940357931862 -s 1 -d 0 -p rtProtoDV -e 6 -c 0 -i 14 -a 0 -x {1.1 0.2 -1 ------- null}
h -t 0.277940357931862 -s 1 -d 0 -p rtProtoDV -e 6 -c 0 -i 14 -a 0 -x {1.1 0.2 -1 ------- null}
+ -t 0.277940357931862 -s 1 -d 2 -p rtProtoDV -e 6 -c 0 -i 15 -a 0 -x {1.1 2.2 -1 ------- null}
- -t 0.277940357931862 -s 1 -d 2 -p rtProtoDV -e 6 -c 0 -i 15 -a 0 -x {1.1 2.2 -1 ------- null}
h -t 0.277940357931862 -s 1 -d 2 -p rtProtoDV -e 6 -c 0 -i 15 -a 0 -x {1.1 2.2 -1 ------- null}
+ -t 0.277940357931862 -s 1 -d 4 -p rtProtoDV -e 6 -c 0 -i 16 -a 0 -x {1.1 4.1 -1 ------- null}
- -t 0.277940357931862 -s 1 -d 4 -p rtProtoDV -e 6 -c 0 -i 16 -a 0 -x {1.1 4.1 -1 ------- null}
h -t 0.277940357931862 -s 1 -d 4 -p rtProtoDV -e 6 -c 0 -i 16 -a 0 -x {1.1 4.1 -1 ------- null}
r -t 0.28070189092161 -s 0 -d 1 -p rtProtoDV -e 6 -c 0 -i 12 -a 0 -x {0.2 1.1 -1 ------- null}
r -t 0.28070189092161 -s 2 -d 1 -p rtProtoDV -e 6 -c 0 -i 13 -a 0 -x {2.2 1.1 -1 ------- null}
r -t 0.287949957931862 -s 1 -d 0 -p rtProtoDV -e 6 -c 0 -i 14 -a 0 -x {1.1 0.2 -1 ------- null}
r -t 0.287949957931862 -s 1 -d 2 -p rtProtoDV -e 6 -c 0 -i 15 -a 0 -x {1.1 2.2 -1 ------- null}
r -t 0.30077869092161 -s 1 -d 4 -p rtProtoDV -e 6 -c 0 -i 11 -a 0 -x {1.1 4.1 -1 ------- null}
+ -t 0.30077869092161 -s 4 -d 1 -p rtProtoDV -e 6 -c 0 -i 17 -a 0 -x {4.1 1.1 -1 ------- null}
- -t 0.30077869092161 -s 4 -d 1 -p rtProtoDV -e 6 -c 0 -i 17 -a 0 -x {4.1 1.1 -1 ------- null}
h -t 0.30077869092161 -s 4 -d 1 -p rtProtoDV -e 6 -c 0 -i 17 -a 0 -x {4.1 1.1 -1 ------- null}
+ -t 0.30077869092161 -s 4 -d 3 -p rtProtoDV -e 6 -c 0 -i 18 -a 0 -x {4.1 3.2 -1 ------- null}
- -t 0.30077869092161 -s 4 -d 3 -p rtProtoDV -e 6 -c 0 -i 18 -a 0 -x {4.1 3.2 -1 ------- null}
h -t 0.30077869092161 -s 4 -d 3 -p rtProtoDV -e 6 -c 0 -i 18 -a 0 -x {4.1 3.2 -1 ------- null}
+ -t 0.30077869092161 -s 4 -d 5 -p rtProtoDV -e 6 -c 0 -i 19 -a 0 -x {4.1 5.2 -1 ------- null}
- -t 0.30077869092161 -s 4 -d 5 -p rtProtoDV -e 6 -c 0 -i 19 -a 0 -x {4.1 5.2 -1 ------- null}
h -t 0.30077869092161 -s 4 -d 5 -p rtProtoDV -e 6 -c 0 -i 19 -a 0 -x {4.1 5.2 -1 ------- null}
r -t 0.31078829092161 -s 4 -d 3 -p rtProtoDV -e 6 -c 0 -i 18 -a 0 -x {4.1 3.2 -1 ------- null}
+ -t 0.31078829092161 -s 3 -d 4 -p rtProtoDV -e 6 -c 0 -i 20 -a 0 -x {3.2 4.1 -1 ------- null}
- -t 0.31078829092161 -s 3 -d 4 -p rtProtoDV -e 6 -c 0 -i 20 -a 0 -x {3.2 4.1 -1 ------- null}
h -t 0.31078829092161 -s 3 -d 4 -p rtProtoDV -e 6 -c 0 -i 20 -a 0 -x {3.2 4.1 -1 ------- null}
r -t 0.31078829092161 -s 4 -d 5 -p rtProtoDV -e 6 -c 0 -i 19 -a 0 -x {4.1 5.2 -1 ------- null}
+ -t 0.31078829092161 -s 5 -d 4 -p rtProtoDV -e 6 -c 0 -i 21 -a 0 -x {5.2 4.1 -1 ------- null}
- -t 0.31078829092161 -s 5 -d 4 -p rtProtoDV -e 6 -c 0 -i 21 -a 0 -x {5.2 4.1 -1 ------- null}
h -t 0.31078829092161 -s 5 -d 4 -p rtProtoDV -e 6 -c 0 -i 21 -a 0 -x {5.2 4.1 -1 ------- null}
r -t 0.318036357931862 -s 1 -d 4 -p rtProtoDV -e 6 -c 0 -i 16 -a 0 -x {1.1 4.1 -1 ------- null}
r -t 0.32079789092161 -s 3 -d 4 -p rtProtoDV -e 6 -c 0 -i 20 -a 0 -x {3.2 4.1 -1 ------- null}
r -t 0.32079789092161 -s 5 -d 4 -p rtProtoDV -e 6 -c 0 -i 21 -a 0 -x {5.2 4.1 -1 ------- null}
r -t 0.34087469092161 -s 4 -d 1 -p rtProtoDV -e 6 -c 0 -i 17 -a 0 -x {4.1 1.1 -1 ------- null}
+ -t 0.399577726796073 -s 5 -d 4 -p rtProtoDV -e 6 -c 0 -i 22 -a 0 -x {5.2 4.1 -1 ------- null}
- -t 0.399577726796073 -s 5 -d 4 -p rtProtoDV -e 6 -c 0 -i 22 -a 0 -x {5.2 4.1 -1 ------- null}
h -t 0.399577726796073 -s 5 -d 4 -p rtProtoDV -e 6 -c 0 -i 22 -a 0 -x {5.2 4.1 -1 ------- null}
r -t 0.409587326796073 -s 5 -d 4 -p rtProtoDV -e 6 -c 0 -i 22 -a 0 -x {5.2 4.1 -1 ------- null}
+ -t 1 -s 2 -d 1 -p tcp -e 40 -c 1 -i 23 -a 1 -x {2.0 5.0 0 ------- null}
- -t 1 -s 2 -d 1 -p tcp -e 40 -c 1 -i 23 -a 1 -x {2.0 5.0 0 ------- null}
h -t 1 -s 2 -d 1 -p tcp -e 40 -c 1 -i 23 -a 1 -x {2.0 5.0 -1 ------- null}
r -t 1.010064 -s 2 -d 1 -p tcp -e 40 -c 1 -i 23 -a 1 -x {2.0 5.0 0 ------- null}
+ -t 1.010064 -s 1 -d 4 -p tcp -e 40 -c 1 -i 23 -a 1 -x {2.0 5.0 0 ------- null}
- -t 1.010064 -s 1 -d 4 -p tcp -e 40 -c 1 -i 23 -a 1 -x {2.0 5.0 0 ------- null}
h -t 1.010064 -s 1 -d 4 -p tcp -e 40 -c 1 -i 23 -a 1 -x {2.0 5.0 -1 ------- null}
r -t 1.050704 -s 1 -d 4 -p tcp -e 40 -c 1 -i 23 -a 1 -x {2.0 5.0 0 ------- null}
+ -t 1.050704 -s 4 -d 5 -p tcp -e 40 -c 1 -i 23 -a 1 -x {2.0 5.0 0 ------- null}
- -t 1.050704 -s 4 -d 5 -p tcp -e 40 -c 1 -i 23 -a 1 -x {2.0 5.0 0 ------- null}
h -t 1.050704 -s 4 -d 5 -p tcp -e 40 -c 1 -i 23 -a 1 -x {2.0 5.0 -1 ------- null}
r -t 1.060768 -s 4 -d 5 -p tcp -e 40 -c 1 -i 23 -a 1 -x {2.0 5.0 0 ------- null}
+ -t 1.060768 -s 5 -d 4 -p ack -e 40 -c 1 -i 24 -a 1 -x {5.0 2.0 0 ------- null}
- -t 1.060768 -s 5 -d 4 -p ack -e 40 -c 1 -i 24 -a 1 -x {5.0 2.0 0 ------- null}
h -t 1.060768 -s 5 -d 4 -p ack -e 40 -c 1 -i 24 -a 1 -x {5.0 2.0 -1 ------- null}
r -t 1.070832 -s 5 -d 4 -p ack -e 40 -c 1 -i 24 -a 1 -x {5.0 2.0 0 ------- null}
+ -t 1.070832 -s 4 -d 1 -p ack -e 40 -c 1 -i 24 -a 1 -x {5.0 2.0 0 ------- null}
- -t 1.070832 -s 4 -d 1 -p ack -e 40 -c 1 -i 24 -a 1 -x {5.0 2.0 0 ------- null}
h -t 1.070832 -s 4 -d 1 -p ack -e 40 -c 1 -i 24 -a 1 -x {5.0 2.0 -1 ------- null}
r -t 1.111472 -s 4 -d 1 -p ack -e 40 -c 1 -i 24 -a 1 -x {5.0 2.0 0 ------- null}
+ -t 1.111472 -s 1 -d 2 -p ack -e 40 -c 1 -i 24 -a 1 -x {5.0 2.0 0 ------- null}
- -t 1.111472 -s 1 -d 2 -p ack -e 40 -c 1 -i 24 -a 1 -x {5.0 2.0 0 ------- null}
h -t 1.111472 -s 1 -d 2 -p ack -e 40 -c 1 -i 24 -a 1 -x {5.0 2.0 -1 ------- null}
r -t 1.121536 -s 1 -d 2 -p ack -e 40 -c 1 -i 24 -a 1 -x {5.0 2.0 0 ------- null}
+ -t 1.121536 -s 2 -d 1 -p tcp -e 1040 -c 1 -i 25 -a 1 -x {2.0 5.0 1 ------- null}
- -t 1.121536 -s 2 -d 1 -p tcp -e 1040 -c 1 -i 25 -a 1 -x {2.0 5.0 1 ------- null}
h -t 1.121536 -s 2 -d 1 -p tcp -e 1040 -c 1 -i 25 -a 1 -x {2.0 5.0 -1 ------- null}
+ -t 1.121536 -s 2 -d 1 -p tcp -e 1040 -c 1 -i 26 -a 1 -x {2.0 5.0 2 ------- null}
- -t 1.1232 -s 2 -d 1 -p tcp -e 1040 -c 1 -i 26 -a 1 -x {2.0 5.0 2 ------- null}
h -t 1.1232 -s 2 -d 1 -p tcp -e 1040 -c 1 -i 26 -a 1 -x {2.0 5.0 -1 ------- null}
r -t 1.1332 -s 2 -d 1 -p tcp -e 1040 -c 1 -i 25 -a 1 -x {2.0 5.0 1 ------- null}
+ -t 1.1332 -s 1 -d 4 -p tcp -e 1040 -c 1 -i 25 -a 1 -x {2.0 5.0 1 ------- null}
- -t 1.1332 -s 1 -d 4 -p tcp -e 1040 -c 1 -i 25 -a 1 -x {2.0 5.0 1 ------- null}
h -t 1.1332 -s 1 -d 4 -p tcp -e 1040 -c 1 -i 25 -a 1 -x {2.0 5.0 -1 ------- null}
r -t 1.134864 -s 2 -d 1 -p tcp -e 1040 -c 1 -i 26 -a 1 -x {2.0 5.0 2 ------- null}
+ -t 1.134864 -s 1 -d 4 -p tcp -e 1040 -c 1 -i 26 -a 1 -x {2.0 5.0 2 ------- null}
- -t 1.14984 -s 1 -d 4 -p tcp -e 1040 -c 1 -i 26 -a 1 -x {2.0 5.0 2 ------- null}
h -t 1.14984 -s 1 -d 4 -p tcp -e 1040 -c 1 -i 26 -a 1 -x {2.0 5.0 -1 ------- null}
r -t 1.18984 -s 1 -d 4 -p tcp -e 1040 -c 1 -i 25 -a 1 -x {2.0 5.0 1 ------- null}
+ -t 1.18984 -s 4 -d 5 -p tcp -e 1040 -c 1 -i 25 -a 1 -x {2.0 5.0 1 ------- null}
- -t 1.18984 -s 4 -d 5 -p tcp -e 1040 -c 1 -i 25 -a 1 -x {2.0 5.0 1 ------- null}
h -t 1.18984 -s 4 -d 5 -p tcp -e 1040 -c 1 -i 25 -a 1 -x {2.0 5.0 -1 ------- null}
r -t 1.201504 -s 4 -d 5 -p tcp -e 1040 -c 1 -i 25 -a 1 -x {2.0 5.0 1 ------- null}
+ -t 1.201504 -s 5 -d 4 -p ack -e 40 -c 1 -i 27 -a 1 -x {5.0 2.0 1 ------- null}
- -t 1.201504 -s 5 -d 4 -p ack -e 40 -c 1 -i 27 -a 1 -x {5.0 2.0 1 ------- null}
h -t 1.201504 -s 5 -d 4 -p ack -e 40 -c 1 -i 27 -a 1 -x {5.0 2.0 -1 ------- null}
r -t 1.20648 -s 1 -d 4 -p tcp -e 1040 -c 1 -i 26 -a 1 -x {2.0 5.0 2 ------- null}
+ -t 1.20648 -s 4 -d 5 -p tcp -e 1040 -c 1 -i 26 -a 1 -x {2.0 5.0 2 ------- null}
- -t 1.20648 -s 4 -d 5 -p tcp -e 1040 -c 1 -i 26 -a 1 -x {2.0 5.0 2 ------- null}
h -t 1.20648 -s 4 -d 5 -p tcp -e 1040 -c 1 -i 26 -a 1 -x {2.0 5.0 -1 ------- null}
r -t 1.211568 -s 5 -d 4 -p ack -e 40 -c 1 -i 27 -a 1 -x {5.0 2.0 1 ------- null}
+ -t 1.211568 -s 4 -d 1 -p ack -e 40 -c 1 -i 27 -a 1 -x {5.0 2.0 1 ------- null}
- -t 1.211568 -s 4 -d 1 -p ack -e 40 -c 1 -i 27 -a 1 -x {5.0 2.0 1 ------- null}
h -t 1.211568 -s 4 -d 1 -p ack -e 40 -c 1 -i 27 -a 1 -x {5.0 2.0 -1 ------- null}
r -t 1.218144 -s 4 -d 5 -p tcp -e 1040 -c 1 -i 26 -a 1 -x {2.0 5.0 2 ------- null}
+ -t 1.218144 -s 5 -d 4 -p ack -e 40 -c 1 -i 28 -a 1 -x {5.0 2.0 2 ------- null}
- -t 1.218144 -s 5 -d 4 -p ack -e 40 -c 1 -i 28 -a 1 -x {5.0 2.0 2 ------- null}
h -t 1.218144 -s 5 -d 4 -p ack -e 40 -c 1 -i 28 -a 1 -x {5.0 2.0 -1 ------- null}
r -t 1.228208 -s 5 -d 4 -p ack -e 40 -c 1 -i 28 -a 1 -x {5.0 2.0 2 ------- null}
+ -t 1.228208 -s 4 -d 1 -p ack -e 40 -c 1 -i 28 -a 1 -x {5.0 2.0 2 ------- null}
- -t 1.228208 -s 4 -d 1 -p ack -e 40 -c 1 -i 28 -a 1 -x {5.0 2.0 2 ------- null}
h -t 1.228208 -s 4 -d 1 -p ack -e 40 -c 1 -i 28 -a 1 -x {5.0 2.0 -1 ------- null}
r -t 1.252208 -s 4 -d 1 -p ack -e 40 -c 1 -i 27 -a 1 -x {5.0 2.0 1 ------- null}
+ -t 1.252208 -s 1 -d 2 -p ack -e 40 -c 1 -i 27 -a 1 -x {5.0 2.0 1 ------- null}
- -t 1.252208 -s 1 -d 2 -p ack -e 40 -c 1 -i 27 -a 1 -x {5.0 2.0 1 ------- null}
h -t 1.252208 -s 1 -d 2 -p ack -e 40 -c 1 -i 27 -a 1 -x {5.0 2.0 -1 ------- null}
r -t 1.262272 -s 1 -d 2 -p ack -e 40 -c 1 -i 27 -a 1 -x {5.0 2.0 1 ------- null}
+ -t 1.262272 -s 2 -d 1 -p tcp -e 1040 -c 1 -i 29 -a 1 -x {2.0 5.0 3 ------- null}
- -t 1.262272 -s 2 -d 1 -p tcp -e 1040 -c 1 -i 29 -a 1 -x {2.0 5.0 3 ------- null}
h -t 1.262272 -s 2 -d 1 -p tcp -e 1040 -c 1 -i 29 -a 1 -x {2.0 5.0 -1 ------- null}
+ -t 1.262272 -s 2 -d 1 -p tcp -e 1040 -c 1 -i 30 -a 1 -x {2.0 5.0 4 ------- null}
- -t 1.263936 -s 2 -d 1 -p tcp -e 1040 -c 1 -i 30 -a 1 -x {2.0 5.0 4 ------- null}
h -t 1.263936 -s 2 -d 1 -p tcp -e 1040 -c 1 -i 30 -a 1 -x {2.0 5.0 -1 ------- null}
r -t 1.268848 -s 4 -d 1 -p ack -e 40 -c 1 -i 28 -a 1 -x {5.0 2.0 2 ------- null}
+ -t 1.268848 -s 1 -d 2 -p ack -e 40 -c 1 -i 28 -a 1 -x {5.0 2.0 2 ------- null}
- -t 1.268848 -s 1 -d 2 -p ack -e 40 -c 1 -i 28 -a 1 -x {5.0 2.0 2 ------- null}
h -t 1.268848 -s 1 -d 2 -p ack -e 40 -c 1 -i 28 -a 1 -x {5.0 2.0 -1 ------- null}
r -t 1.273936 -s 2 -d 1 -p tcp -e 1040 -c 1 -i 29 -a 1 -x {2.0 5.0 3 ------- null}
+ -t 1.273936 -s 1 -d 4 -p tcp -e 1040 -c 1 -i 29 -a 1 -x {2.0 5.0 3 ------- null}
- -t 1.273936 -s 1 -d 4 -p tcp -e 1040 -c 1 -i 29 -a 1 -x {2.0 5.0 3 ------- null}
h -t 1.273936 -s 1 -d 4 -p tcp -e 1040 -c 1 -i 29 -a 1 -x {2.0 5.0 -1 ------- null}
r -t 1.2756 -s 2 -d 1 -p tcp -e 1040 -c 1 -i 30 -a 1 -x {2.0 5.0 4 ------- null}
+ -t 1.2756 -s 1 -d 4 -p tcp -e 1040 -c 1 -i 30 -a 1 -x {2.0 5.0 4 ------- null}
r -t 1.278912 -s 1 -d 2 -p ack -e 40 -c 1 -i 28 -a 1 -x {5.0 2.0 2 ------- null}
+ -t 1.278912 -s 2 -d 1 -p tcp -e 1040 -c 1 -i 31 -a 1 -x {2.0 5.0 5 ------- null}
- -t 1.278912 -s 2 -d 1 -p tcp -e 1040 -c 1 -i 31 -a 1 -x {2.0 5.0 5 ------- null}
h -t 1.278912 -s 2 -d 1 -p tcp -e 1040 -c 1 -i 31 -a 1 -x {2.0 5.0 -1 ------- null}
+ -t 1.278912 -s 2 -d 1 -p tcp -e 1040 -c 1 -i 32 -a 1 -x {2.0 5.0 6 ------- null}
- -t 1.280576 -s 2 -d 1 -p tcp -e 1040 -c 1 -i 32 -a 1 -x {2.0 5.0 6 ------- null}
h -t 1.280576 -s 2 -d 1 -p tcp -e 1040 -c 1 -i 32 -a 1 -x {2.0 5.0 -1 ------- null}
- -t 1.290576 -s 1 -d 4 -p tcp -e 1040 -c 1 -i 30 -a 1 -x {2.0 5.0 4 ------- null}
h -t 1.290576 -s 1 -d 4 -p tcp -e 1040 -c 1 -i 30 -a 1 -x {2.0 5.0 -1 ------- null}
r -t 1.290576 -s 2 -d 1 -p tcp -e 1040 -c 1 -i 31 -a 1 -x {2.0 5.0 5 ------- null}
+ -t 1.290576 -s 1 -d 4 -p tcp -e 1040 -c 1 -i 31 -a 1 -x {2.0 5.0 5 ------- null}
r -t 1.29224 -s 2 -d 1 -p tcp -e 1040 -c 1 -i 32 -a 1 -x {2.0 5.0 6 ------- null}
+ -t 1.29224 -s 1 -d 4 -p tcp -e 1040 -c 1 -i 32 -a 1 -x {2.0 5.0 6 ------- null}
- -t 1.307216 -s 1 -d 4 -p tcp -e 1040 -c 1 -i 31 -a 1 -x {2.0 5.0 5 ------- null}
h -t 1.307216 -s 1 -d 4 -p tcp -e 1040 -c 1 -i 31 -a 1 -x {2.0 5.0 -1 ------- null}
- -t 1.323856 -s 1 -d 4 -p tcp -e 1040 -c 1 -i 32 -a 1 -x {2.0 5.0 6 ------- null}
h -t 1.323856 -s 1 -d 4 -p tcp -e 1040 -c 1 -i 32 -a 1 -x {2.0 5.0 -1 ------- null}
r -t 1.330576 -s 1 -d 4 -p tcp -e 1040 -c 1 -i 29 -a 1 -x {2.0 5.0 3 ------- null}
+ -t 1.330576 -s 4 -d 5 -p tcp -e 1040 -c 1 -i 29 -a 1 -x {2.0 5.0 3 ------- null}
- -t 1.330576 -s 4 -d 5 -p tcp -e 1040 -c 1 -i 29 -a 1 -x {2.0 5.0 3 ------- null}
h -t 1.330576 -s 4 -d 5 -p tcp -e 1040 -c 1 -i 29 -a 1 -x {2.0 5.0 -1 ------- null}
r -t 1.34224 -s 4 -d 5 -p tcp -e 1040 -c 1 -i 29 -a 1 -x {2.0 5.0 3 ------- null}
+ -t 1.34224 -s 5 -d 4 -p ack -e 40 -c 1 -i 33 -a 1 -x {5.0 2.0 3 ------- null}
- -t 1.34224 -s 5 -d 4 -p ack -e 40 -c 1 -i 33 -a 1 -x {5.0 2.0 3 ------- null}
h -t 1.34224 -s 5 -d 4 -p ack -e 40 -c 1 -i 33 -a 1 -x {5.0 2.0 -1 ------- null}
r -t 1.347216 -s 1 -d 4 -p tcp -e 1040 -c 1 -i 30 -a 1 -x {2.0 5.0 4 ------- null}
+ -t 1.347216 -s 4 -d 5 -p tcp -e 1040 -c 1 -i 30 -a 1 -x {2.0 5.0 4 ------- null}
- -t 1.347216 -s 4 -d 5 -p tcp -e 1040 -c 1 -i 30 -a 1 -x {2.0 5.0 4 ------- null}
h -t 1.347216 -s 4 -d 5 -p tcp -e 1040 -c 1 -i 30 -a 1 -x {2.0 5.0 -1 ------- null}
r -t 1.352304 -s 5 -d 4 -p ack -e 40 -c 1 -i 33 -a 1 -x {5.0 2.0 3 ------- null}
+ -t 1.352304 -s 4 -d 1 -p ack -e 40 -c 1 -i 33 -a 1 -x {5.0 2.0 3 ------- null}
- -t 1.352304 -s 4 -d 1 -p ack -e 40 -c 1 -i 33 -a 1 -x {5.0 2.0 3 ------- null}
h -t 1.352304 -s 4 -d 1 -p ack -e 40 -c 1 -i 33 -a 1 -x {5.0 2.0 -1 ------- null}
r -t 1.35888 -s 4 -d 5 -p tcp -e 1040 -c 1 -i 30 -a 1 -x {2.0 5.0 4 ------- null}
+ -t 1.35888 -s 5 -d 4 -p ack -e 40 -c 1 -i 34 -a 1 -x {5.0 2.0 4 ------- null}
- -t 1.35888 -s 5 -d 4 -p ack -e 40 -c 1 -i 34 -a 1 -x {5.0 2.0 4 ------- null}
h -t 1.35888 -s 5 -d 4 -p ack -e 40 -c 1 -i 34 -a 1 -x {5.0 2.0 -1 ------- null}
r -t 1.363856 -s 1 -d 4 -p tcp -e 1040 -c 1 -i 31 -a 1 -x {2.0 5.0 5 ------- null}
+ -t 1.363856 -s 4 -d 5 -p tcp -e 1040 -c 1 -i 31 -a 1 -x {2.0 5.0 5 ------- null}
- -t 1.363856 -s 4 -d 5 -p tcp -e 1040 -c 1 -i 31 -a 1 -x {2.0 5.0 5 ------- null}
h -t 1.363856 -s 4 -d 5 -p tcp -e 1040 -c 1 -i 31 -a 1 -x {2.0 5.0 -1 ------- null}
r -t 1.368944 -s 5 -d 4 -p ack -e 40 -c 1 -i 34 -a 1 -x {5.0 2.0 4 ------- null}
+ -t 1.368944 -s 4 -d 1 -p ack -e 40 -c 1 -i 34 -a 1 -x {5.0 2.0 4 ------- null}
- -t 1.368944 -s 4 -d 1 -p ack -e 40 -c 1 -i 34 -a 1 -x {5.0 2.0 4 ------- null}
h -t 1.368944 -s 4 -d 1 -p ack -e 40 -c 1 -i 34 -a 1 -x {5.0 2.0 -1 ------- null}
r -t 1.37552 -s 4 -d 5 -p tcp -e 1040 -c 1 -i 31 -a 1 -x {2.0 5.0 5 ------- null}
+ -t 1.37552 -s 5 -d 4 -p ack -e 40 -c 1 -i 35 -a 1 -x {5.0 2.0 5 ------- null}
- -t 1.37552 -s 5 -d 4 -p ack -e 40 -c 1 -i 35 -a 1 -x {5.0 2.0 5 ------- null}
h -t 1.37552 -s 5 -d 4 -p ack -e 40 -c 1 -i 35 -a 1 -x {5.0 2.0 -1 ------- null}
r -t 1.380496 -s 1 -d 4 -p tcp -e 1040 -c 1 -i 32 -a 1 -x {2.0 5.0 6 ------- null}
+ -t 1.380496 -s 4 -d 5 -p tcp -e 1040 -c 1 -i 32 -a 1 -x {2.0 5.0 6 ------- null}
- -t 1.380496 -s 4 -d 5 -p tcp -e 1040 -c 1 -i 32 -a 1 -x {2.0 5.0 6 ------- null}
h -t 1.380496 -s 4 -d 5 -p tcp -e 1040 -c 1 -i 32 -a 1 -x {2.0 5.0 -1 ------- null}
r -t 1.385584 -s 5 -d 4 -p ack -e 40 -c 1 -i 35 -a 1 -x {5.0 2.0 5 ------- null}
+ -t 1.385584 -s 4 -d 1 -p ack -e 40 -c 1 -i 35 -a 1 -x {5.0 2.0 5 ------- null}
- -t 1.385584 -s 4 -d 1 -p ack -e 40 -c 1 -i 35 -a 1 -x {5.0 2.0 5 ------- null}
h -t 1.385584 -s 4 -d 1 -p ack -e 40 -c 1 -i 35 -a 1 -x {5.0 2.0 -1 ------- null}
r -t 1.39216 -s 4 -d 5 -p tcp -e 1040 -c 1 -i 32 -a 1 -x {2.0 5.0 6 ------- null}
+ -t 1.39216 -s 5 -d 4 -p ack -e 40 -c 1 -i 36 -a 1 -x {5.0 2.0 6 ------- null}
- -t 1.39216 -s 5 -d 4 -p ack -e 40 -c 1 -i 36 -a 1 -x {5.0 2.0 6 ------- null}
h -t 1.39216 -s 5 -d 4 -p ack -e 40 -c 1 -i 36 -a 1 -x {5.0 2.0 -1 ------- null}
r -t 1.392944 -s 4 -d 1 -p ack -e 40 -c 1 -i 33 -a 1 -x {5.0 2.0 3 ------- null}
+ -t 1.392944 -s 1 -d 2 -p ack -e 40 -c 1 -i 33 -a 1 -x {5.0 2.0 3 ------- null}
- -t 1.392944 -s 1 -d 2 -p ack -e 40 -c 1 -i 33 -a 1 -x {5.0 2.0 3 ------- null}
h -t 1.392944 -s 1 -d 2 -p ack -e 40 -c 1 -i 33 -a 1 -x {5.0 2.0 -1 ------- null}
r -t 1.402224 -s 5 -d 4 -p ack -e 40 -c 1 -i 36 -a 1 -x {5.0 2.0 6 ------- null}
+ -t 1.402224 -s 4 -d 1 -p ack -e 40 -c 1 -i 36 -a 1 -x {5.0 2.0 6 ------- null}
- -t 1.402224 -s 4 -d 1 -p ack -e 40 -c 1 -i 36 -a 1 -x {5.0 2.0 6 ------- null}
h -t 1.402224 -s 4 -d 1 -p ack -e 40 -c 1 -i 36 -a 1 -x {5.0 2.0 -1 ------- null}
r -t 1.403008 -s 1 -d 2 -p ack -e 40 -c 1 -i 33 -a 1 -x {5.0 2.0 3 ------- null}
+ -t 1.403008 -s 2 -d 1 -p tcp -e 1040 -c 1 -i 37 -a 1 -x {2.0 5.0 7 ------- null}
- -t 1.403008 -s 2 -d 1 -p tcp -e 1040 -c 1 -i 37 -a 1 -x {2.0 5.0 7 ------- null}
h -t 1.403008 -s 2 -d 1 -p tcp -e 1040 -c 1 -i 37 -a 1 -x {2.0 5.0 -1 ------- null}
+ -t 1.403008 -s 2 -d 1 -p tcp -e 1040 -c 1 -i 38 -a 1 -x {2.0 5.0 8 ------- null}
- -t 1.404672 -s 2 -d 1 -p tcp -e 1040 -c 1 -i 38 -a 1 -x {2.0 5.0 8 ------- null}
h -t 1.404672 -s 2 -d 1 -p tcp -e 1040 -c 1 -i 38 -a 1 -x {2.0 5.0 -1 ------- null}
r -t 1.409584 -s 4 -d 1 -p ack -e 40 -c 1 -i 34 -a 1 -x {5.0 2.0 4 ------- null}
+ -t 1.409584 -s 1 -d 2 -p ack -e 40 -c 1 -i 34 -a 1 -x {5.0 2.0 4 ------- null}
- -t 1.409584 -s 1 -d 2 -p ack -e 40 -c 1 -i 34 -a 1 -x {5.0 2.0 4 ------- null}
h -t 1.409584 -s 1 -d 2 -p ack -e 40 -c 1 -i 34 -a 1 -x {5.0 2.0 -1 ------- null}
r -t 1.414672 -s 2 -d 1 -p tcp -e 1040 -c 1 -i 37 -a 1 -x {2.0 5.0 7 ------- null}
+ -t 1.414672 -s 1 -d 4 -p tcp -e 1040 -c 1 -i 37 -a 1 -x {2.0 5.0 7 ------- null}
- -t 1.414672 -s 1 -d 4 -p tcp -e 1040 -c 1 -i 37 -a 1 -x {2.0 5.0 7 ------- null}
h -t 1.414672 -s 1 -d 4 -p tcp -e 1040 -c 1 -i 37 -a 1 -x {2.0 5.0 -1 ------- null}
r -t 1.416336 -s 2 -d 1 -p tcp -e 1040 -c 1 -i 38 -a 1 -x {2.0 5.0 8 ------- null}
+ -t 1.416336 -s 1 -d 4 -p tcp -e 1040 -c 1 -i 38 -a 1 -x {2.0 5.0 8 ------- null}
r -t 1.419648 -s 1 -d 2 -p ack -e 40 -c 1 -i 34 -a 1 -x {5.0 2.0 4 ------- null}
+ -t 1.419648 -s 2 -d 1 -p tcp -e 1040 -c 1 -i 39 -a 1 -x {2.0 5.0 9 ------- null}
- -t 1.419648 -s 2 -d 1 -p tcp -e 1040 -c 1 -i 39 -a 1 -x {2.0 5.0 9 ------- null}
h -t 1.419648 -s 2 -d 1 -p tcp -e 1040 -c 1 -i 39 -a 1 -x {2.0 5.0 -1 ------- null}
+ -t 1.419648 -s 2 -d 1 -p tcp -e 1040 -c 1 -i 40 -a 1 -x {2.0 5.0 10 ------- null}
- -t 1.421312 -s 2 -d 1 -p tcp -e 1040 -c 1 -i 40 -a 1 -x {2.0 5.0 10 ------- null}
h -t 1.421312 -s 2 -d 1 -p tcp -e 1040 -c 1 -i 40 -a 1 -x {2.0 5.0 -1 ------- null}
r -t 1.426224 -s 4 -d 1 -p ack -e 40 -c 1 -i 35 -a 1 -x {5.0 2.0 5 ------- null}
+ -t 1.426224 -s 1 -d 2 -p ack -e 40 -c 1 -i 35 -a 1 -x {5.0 2.0 5 ------- null}
- -t 1.426224 -s 1 -d 2 -p ack -e 40 -c 1 -i 35 -a 1 -x {5.0 2.0 5 ------- null}
h -t 1.426224 -s 1 -d 2 -p ack -e 40 -c 1 -i 35 -a 1 -x {5.0 2.0 -1 ------- null}
- -t 1.431312 -s 1 -d 4 -p tcp -e 1040 -c 1 -i 38 -a 1 -x {2.0 5.0 8 ------- null}
h -t 1.431312 -s 1 -d 4 -p tcp -e 1040 -c 1 -i 38 -a 1 -x {2.0 5.0 -1 ------- null}
r -t 1.431312 -s 2 -d 1 -p tcp -e 1040 -c 1 -i 39 -a 1 -x {2.0 5.0 9 ------- null}
+ -t 1.431312 -s 1 -d 4 -p tcp -e 1040 -c 1 -i 39 -a 1 -x {2.0 5.0 9 ------- null}
r -t 1.432976 -s 2 -d 1 -p tcp -e 1040 -c 1 -i 40 -a 1 -x {2.0 5.0 10 ------- null}
+ -t 1.432976 -s 1 -d 4 -p tcp -e 1040 -c 1 -i 40 -a 1 -x {2.0 5.0 10 ------- null}
r -t 1.436288 -s 1 -d 2 -p ack -e 40 -c 1 -i 35 -a 1 -x {5.0 2.0 5 ------- null}
+ -t 1.436288 -s 2 -d 1 -p tcp -e 1040 -c 1 -i 41 -a 1 -x {2.0 5.0 11 ------- null}
- -t 1.436288 -s 2 -d 1 -p tcp -e 1040 -c 1 -i 41 -a 1 -x {2.0 5.0 11 ------- null}
h -t 1.436288 -s 2 -d 1 -p tcp -e 1040 -c 1 -i 41 -a 1 -x {2.0 5.0 -1 ------- null}
+ -t 1.436288 -s 2 -d 1 -p tcp -e 1040 -c 1 -i 42 -a 1 -x {2.0 5.0 12 ------- null}
- -t 1.437952 -s 2 -d 1 -p tcp -e 1040 -c 1 -i 42 -a 1 -x {2.0 5.0 12 ------- null}
h -t 1.437952 -s 2 -d 1 -p tcp -e 1040 -c 1 -i 42 -a 1 -x {2.0 5.0 -1 ------- null}
r -t 1.442864 -s 4 -d 1 -p ack -e 40 -c 1 -i 36 -a 1 -x {5.0 2.0 6 ------- null}
+ -t 1.442864 -s 1 -d 2 -p ack -e 40 -c 1 -i 36 -a 1 -x {5.0 2.0 6 ------- null}
- -t 1.442864 -s 1 -d 2 -p ack -e 40 -c 1 -i 36 -a 1 -x {5.0 2.0 6 ------- null}
h -t 1.442864 -s 1 -d 2 -p ack -e 40 -c 1 -i 36 -a 1 -x {5.0 2.0 -1 ------- null}
- -t 1.447952 -s 1 -d 4 -p tcp -e 1040 -c 1 -i 39 -a 1 -x {2.0 5.0 9 ------- null}
h -t 1.447952 -s 1 -d 4 -p tcp -e 1040 -c 1 -i 39 -a 1 -x {2.0 5.0 -1 ------- null}
r -t 1.447952 -s 2 -d 1 -p tcp -e 1040 -c 1 -i 41 -a 1 -x {2.0 5.0 11 ------- null}
+ -t 1.447952 -s 1 -d 4 -p tcp -e 1040 -c 1 -i 41 -a 1 -x {2.0 5.0 11 ------- null}
r -t 1.449616 -s 2 -d 1 -p tcp -e 1040 -c 1 -i 42 -a 1 -x {2.0 5.0 12 ------- null}
+ -t 1.449616 -s 1 -d 4 -p tcp -e 1040 -c 1 -i 42 -a 1 -x {2.0 5.0 12 ------- null}
r -t 1.452928 -s 1 -d 2 -p ack -e 40 -c 1 -i 36 -a 1 -x {5.0 2.0 6 ------- null}
+ -t 1.452928 -s 2 -d 1 -p tcp -e 1040 -c 1 -i 43 -a 1 -x {2.0 5.0 13 ------- null}
- -t 1.452928 -s 2 -d 1 -p tcp -e 1040 -c 1 -i 43 -a 1 -x {2.0 5.0 13 ------- null}
h -t 1.452928 -s 2 -d 1 -p tcp -e 1040 -c 1 -i 43 -a 1 -x {2.0 5.0 -1 ------- null}
+ -t 1.452928 -s 2 -d 1 -p tcp -e 1040 -c 1 -i 44 -a 1 -x {2.0 5.0 14 ------- null}
- -t 1.454592 -s 2 -d 1 -p tcp -e 1040 -c 1 -i 44 -a 1 -x {2.0 5.0 14 ------- null}
h -t 1.454592 -s 2 -d 1 -p tcp -e 1040 -c 1 -i 44 -a 1 -x {2.0 5.0 -1 ------- null}
- -t 1.464592 -s 1 -d 4 -p tcp -e 1040 -c 1 -i 40 -a 1 -x {2.0 5.0 10 ------- null}
h -t 1.464592 -s 1 -d 4 -p tcp -e 1040 -c 1 -i 40 -a 1 -x {2.0 5.0 -1 ------- null}
r -t 1.464592 -s 2 -d 1 -p tcp -e 1040 -c 1 -i 43 -a 1 -x {2.0 5.0 13 ------- null}
+ -t 1.464592 -s 1 -d 4 -p tcp -e 1040 -c 1 -i 43 -a 1 -x {2.0 5.0 13 ------- null}
r -t 1.466256 -s 2 -d 1 -p tcp -e 1040 -c 1 -i 44 -a 1 -x {2.0 5.0 14 ------- null}
+ -t 1.466256 -s 1 -d 4 -p tcp -e 1040 -c 1 -i 44 -a 1 -x {2.0 5.0 14 ------- null}
r -t 1.471312 -s 1 -d 4 -p tcp -e 1040 -c 1 -i 37 -a 1 -x {2.0 5.0 7 ------- null}
+ -t 1.471312 -s 4 -d 5 -p tcp -e 1040 -c 1 -i 37 -a 1 -x {2.0 5.0 7 ------- null}
- -t 1.471312 -s 4 -d 5 -p tcp -e 1040 -c 1 -i 37 -a 1 -x {2.0 5.0 7 ------- null}
h -t 1.471312 -s 4 -d 5 -p tcp -e 1040 -c 1 -i 37 -a 1 -x {2.0 5.0 -1 ------- null}
- -t 1.481232 -s 1 -d 4 -p tcp -e 1040 -c 1 -i 41 -a 1 -x {2.0 5.0 11 ------- null}
h -t 1.481232 -s 1 -d 4 -p tcp -e 1040 -c 1 -i 41 -a 1 -x {2.0 5.0 -1 ------- null}
r -t 1.482976 -s 4 -d 5 -p tcp -e 1040 -c 1 -i 37 -a 1 -x {2.0 5.0 7 ------- null}
+ -t 1.482976 -s 5 -d 4 -p ack -e 40 -c 1 -i 45 -a 1 -x {5.0 2.0 7 ------- null}
- -t 1.482976 -s 5 -d 4 -p ack -e 40 -c 1 -i 45 -a 1 -x {5.0 2.0 7 ------- null}
h -t 1.482976 -s 5 -d 4 -p ack -e 40 -c 1 -i 45 -a 1 -x {5.0 2.0 -1 ------- null}
r -t 1.487952 -s 1 -d 4 -p tcp -e 1040 -c 1 -i 38 -a 1 -x {2.0 5.0 8 ------- null}
+ -t 1.487952 -s 4 -d 5 -p tcp -e 1040 -c 1 -i 38 -a 1 -x {2.0 5.0 8 ------- null}
- -t 1.487952 -s 4 -d 5 -p tcp -e 1040 -c 1 -i 38 -a 1 -x {2.0 5.0 8 ------- null}
h -t 1.487952 -s 4 -d 5 -p tcp -e 1040 -c 1 -i 38 -a 1 -x {2.0 5.0 -1 ------- null}
r -t 1.49304 -s 5 -d 4 -p ack -e 40 -c 1 -i 45 -a 1 -x {5.0 2.0 7 ------- null}
+ -t 1.49304 -s 4 -d 1 -p ack -e 40 -c 1 -i 45 -a 1 -x {5.0 2.0 7 ------- null}
- -t 1.49304 -s 4 -d 1 -p ack -e 40 -c 1 -i 45 -a 1 -x {5.0 2.0 7 ------- null}
h -t 1.49304 -s 4 -d 1 -p ack -e 40 -c 1 -i 45 -a 1 -x {5.0 2.0 -1 ------- null}
- -t 1.497872 -s 1 -d 4 -p tcp -e 1040 -c 1 -i 42 -a 1 -x {2.0 5.0 12 ------- null}
h -t 1.497872 -s 1 -d 4 -p tcp -e 1040 -c 1 -i 42 -a 1 -x {2.0 5.0 -1 ------- null}
r -t 1.499616 -s 4 -d 5 -p tcp -e 1040 -c 1 -i 38 -a 1 -x {2.0 5.0 8 ------- null}
+ -t 1.499616 -s 5 -d 4 -p ack -e 40 -c 1 -i 46 -a 1 -x {5.0 2.0 8 ------- null}
- -t 1.499616 -s 5 -d 4 -p ack -e 40 -c 1 -i 46 -a 1 -x {5.0 2.0 8 ------- null}
h -t 1.499616 -s 5 -d 4 -p ack -e 40 -c 1 -i 46 -a 1 -x {5.0 2.0 -1 ------- null}
r -t 1.504592 -s 1 -d 4 -p tcp -e 1040 -c 1 -i 39 -a 1 -x {2.0 5.0 9 ------- null}
+ -t 1.504592 -s 4 -d 5 -p tcp -e 1040 -c 1 -i 39 -a 1 -x {2.0 5.0 9 ------- null}
- -t 1.504592 -s 4 -d 5 -p tcp -e 1040 -c 1 -i 39 -a 1 -x {2.0 5.0 9 ------- null}
h -t 1.504592 -s 4 -d 5 -p tcp -e 1040 -c 1 -i 39 -a 1 -x {2.0 5.0 -1 ------- null}
r -t 1.50968 -s 5 -d 4 -p ack -e 40 -c 1 -i 46 -a 1 -x {5.0 2.0 8 ------- null}
+ -t 1.50968 -s 4 -d 1 -p ack -e 40 -c 1 -i 46 -a 1 -x {5.0 2.0 8 ------- null}
- -t 1.50968 -s 4 -d 1 -p ack -e 40 -c 1 -i 46 -a 1 -x {5.0 2.0 8 ------- null}
h -t 1.50968 -s 4 -d 1 -p ack -e 40 -c 1 -i 46 -a 1 -x {5.0 2.0 -1 ------- null}
- -t 1.514512 -s 1 -d 4 -p tcp -e 1040 -c 1 -i 43 -a 1 -x {2.0 5.0 13 ------- null}
h -t 1.514512 -s 1 -d 4 -p tcp -e 1040 -c 1 -i 43 -a 1 -x {2.0 5.0 -1 ------- null}
r -t 1.516256 -s 4 -d 5 -p tcp -e 1040 -c 1 -i 39 -a 1 -x {2.0 5.0 9 ------- null}
+ -t 1.516256 -s 5 -d 4 -p ack -e 40 -c 1 -i 47 -a 1 -x {5.0 2.0 9 ------- null}
- -t 1.516256 -s 5 -d 4 -p ack -e 40 -c 1 -i 47 -a 1 -x {5.0 2.0 9 ------- null}
h -t 1.516256 -s 5 -d 4 -p ack -e 40 -c 1 -i 47 -a 1 -x {5.0 2.0 -1 ------- null}