+ 0.00017 0 17 rtProtoDV 26 ------- 0 0.1454 17.1417 -1 5
- 0.00017 0 17 rtProtoDV 26 ------- 0 0.1454 17.1417 -1 5
r 0.001833 0 17 rtProtoDV 26 ------- 0 0.1454 17.1417 -1 5
+ 0.003496 0 17 rtProtoDV 26 ------- 0 0.1454 17.1417 -1 50
- 0.003496 0 17 rtProtoDV 26 ------- 0 0.1454 17.1417 -1 50
+ 0.004328 0 17 rtProtoDV 26 ------- 0 0.1454 17.1417 -1 67
- 0.004328 0 17 rtProtoDV 26 ------- 0 0.1454 17.1417 -1 67
+ 0.00512 0 17 rtProtoDV 26 ------- 0 0.1454 17.1417 -1 88
- 0.00512 0 17 rtProtoDV 26 ------- 0 0.1454 17.1417 -1 88
r 0.005159 0 17 rtProtoDV 26 ------- 0 0.1454 17.1417 -1 50
+ 0.005689 0 17 rtProtoDV 26 ------- 0 0.1454 17.1417 -1 114
- 0.005689 0 17 rtProtoDV 26 ------- 0 0.1454 17.1417 -1 114
+ 0.005941 0 17 rtProtoDV 26 ------- 0 0.1454 17.1417 -1 120
- 0.005941 0 17 rtProtoDV 26 ------- 0 0.1454 17.1417 -1 120
r 0.005991 0 17 rtProtoDV 26 ------- 0 0.1454 17.1417 -1 67
r 0.006784 0 17 rtProtoDV 26 ------- 0 0.1454 17.1417 -1 88
r 0.007353 0 17 rtProtoDV 26 ------- 0 0.1454 17.1417 -1 114
r 0.007604 0 17 rtProtoDV 26 ------- 0 0.1454 17.1417 -1 120
+ 0.00816 0 17 rtProtoDV 26 ------- 0 0.1454 17.1417 -1 217
- 0.00816 0 17 rtProtoDV 26 ------- 0 0.1454 17.1417 -1 217
r 0.009823 0 17 rtProtoDV 26 ------- 0 0.1454 17.1417 -1 217
+ 0.010912 0 17 rtProtoDV 26 ------- 0 0.1454 17.1417 -1 357
- 0.010912 0 17 rtProtoDV 26 ------- 0 0.1454 17.1417 -1 357
r 0.012575 0 17 rtProtoDV 26 ------- 0 0.1454 17.1417 -1 357
+ 0.014544 0 17 rtProtoDV 26 ------- 0 0.1454 17.1417 -1 544
- 0.014544 0 17 rtProtoDV 26 ------- 0 0.1454 17.1417 -1 544
+ 0.014807 0 17 rtProtoDV 26 ------- 0 0.1454 17.1417 -1 556
- 0.014807 0 17 rtProtoDV 26 ------- 0 0.1454 17.1417 -1 556
r 0.016207 0 17 rtProtoDV 26 ------- 0 0.1454 17.1417 -1 544
r 0.01647 0 17 rtProtoDV 26 ------- 0 0.1454 17.1417 -1 556
+ 0.016672 0 17 rtProtoDV 26 ------- 0 0.1454 17.1417 -1 622
- 0.016672 0 17 rtProtoDV 26 ------- 0 0.1454 17.1417 -1 622
+ 0.017059 0 17 rtProtoDV 26 ------- 0 0.1454 17.1417 -1 644
- 0.017059 0 17 rtProtoDV 26 ------- 0 0.1454 17.1417 -1 644
r 0.018335 0 17 rtProtoDV 26 ------- 0 0.1454 17.1417 -1 622
r 0.018722 0 17 rtProtoDV 26 ------- 0 0.1454 17.1417 -1 644
+ 0.031626 0 17 tcp 40 ------- 0 11.1319 17.767 0 802
- 0.031626 0 17 tcp 40 ------- 0 11.1319 17.767 0 802
r 0.033334 0 17 tcp 40 ------- 0 11.1319 17.767 0 802
+ 0.035917 0 17 tcp 40 ------- 0 13.1308 17.953 0 892
- 0.035917 0 17 tcp 40 ------- 0 13.1308 17.953 0 892
r 0.037625 0 17 tcp 40 ------- 0 13.1308 17.953 0 892
+ 0.037818 0 17 ack 40 ------- 0 0.428 18.10 0 1179
- 0.037818 0 17 ack 40 ------- 0 0.428 18.10 0 1179
+ 0.039087 0 17 tcp 40 ------- 0 13.1325 17.970 0 974
- 0.039087 0 17 tcp 40 ------- 0 13.1325 17.970 0 974
r 0.039526 0 17 ack 40 ------- 0 0.428 18.10 0 1179
+ 0.039663 0 17 tcp 40 ------- 0 21.383 18.974 0 997
- 0.039663 0 17 tcp 40 ------- 0 21.383 18.974 0 997
+ 0.040538 0 17 tcp 40 ------- 0 13.1370 17.1015 0 988
- 0.040538 0 17 tcp 40 ------- 0 13.1370 17.1015 0 988
r 0.040795 0 17 tcp 40 ------- 0 13.1325 17.970 0 974
r 0.041371 0 17 tcp 40 ------- 0 21.383 18.974 0 997
+ 0.041802 0 17 ack 40 ------- 0 15.1098 18.269 0 1080
- 0.041802 0 17 ack 40 ------- 0 15.1098 18.269 0 1080
r 0.042246 0 17 tcp 40 ------- 0 13.1370 17.1015 0 988
r 0.04351 0 17 ack 40 ------- 0 15.1098 18.269 0 1080
+ 0.051754 0 17 ack 40 ------- 0 5.828 17.187 0 1202
- 0.051754 0 17 ack 40 ------- 0 5.828 17.187 0 1202
r 0.053462 0 17 ack 40 ------- 0 5.828 17.187 0 1202
+ 0.054314 0 17 tcp 40 ------- 0 12.988 17.819 0 1294
- 0.054314 0 17 tcp 40 ------- 0 12.988 17.819 0 1294
r 0.056022 0 17 tcp 40 ------- 0 12.988 17.819 0 1294
+ 0.060538 0 17 tcp 40 ------- 0 13.1354 17.999 0 1141
- 0.060538 0 17 tcp 40 ------- 0 13.1354 17.999 0 1141
+ 0.060602 0 17 tcp 40 ------- 0 14.1363 17.1079 0 1285
- 0.060666 0 17 tcp 40 ------- 0 14.1363 17.1079 0 1285
r 0.062246 0 17 tcp 40 ------- 0 13.1354 17.999 0 1141
r 0.062374 0 17 tcp 40 ------- 0 14.1363 17.1079 0 1285
+ 0.069954 0 17 ack 40 ------- 0 0.428 18.10 1 2049
- 0.069954 0 17 ack 40 ------- 0 0.428 18.10 1 2049
r 0.071662 0 17 ack 40 ------- 0 0.428 18.10 1 2049
+ 0.07238 0 17 tcp 40 ------- 0 0.1235 18.344 0 2142
- 0.07238 0 17 tcp 40 ------- 0 0.1235 18.344 0 2142
r 0.074088 0 17 tcp 40 ------- 0 0.1235 18.344 0 2142
+ 0.074882 0 17 ack 40 ------- 0 0.428 18.10 2 2215
- 0.074882 0 17 ack 40 ------- 0 0.428 18.10 2 2215
r 0.07659 0 17 ack 40 ------- 0 0.428 18.10 2 2215
+ 0.07969 0 17 ack 40 ------- 0 12.732 17.365 0 1676
- 0.07969 0 17 ack 40 ------- 0 12.732 17.365 0 1676
+ 0.079722 0 17 tcp 40 ------- 0 15.1282 17.1131 0 1729
- 0.079818 0 17 tcp 40 ------- 0 15.1282 17.1131 0 1729
r 0.081398 0 17 ack 40 ------- 0 12.732 17.365 0 1676
r 0.081526 0 17 tcp 40 ------- 0 15.1282 17.1131 0 1729
+ 0.09593 0 17 ack 40 ------- 0 5.828 17.187 1 1997
- 0.09593 0 17 ack 40 ------- 0 5.828 17.187 1 1997
r 0.097638 0 17 ack 40 ------- 0 5.828 17.187 1 1997
+ 0.102186 0 17 tcp 40 ------- 0 13.1259 17.904 0 1448
- 0.102186 0 17 tcp 40 ------- 0 13.1259 17.904 0 1448
+ 0.102218 0 17 tcp 40 ------- 0 13.1319 17.964 0 1454
+ 0.102282 0 17 tcp 40 ------- 0 12.981 17.812 0 1943
- 0.102314 0 17 tcp 40 ------- 0 13.1319 17.964 0 1454
- 0.102442 0 17 tcp 40 ------- 0 12.981 17.812 0 1943
r 0.103894 0 17 tcp 40 ------- 0 13.1259 17.904 0 1448
r 0.104022 0 17 tcp 40 ------- 0 13.1319 17.964 0 1454
r 0.10415 0 17 tcp 40 ------- 0 12.981 17.812 0 1943
+ 0.108794 0 17 ack 40 ------- 0 0.539 22.30 0 3342
- 0.108794 0 17 ack 40 ------- 0 0.539 22.30 0 3342
+ 0.108826 0 17 ack 40 ------- 0 5.828 17.187 2 2171
- 0.108922 0 17 ack 40 ------- 0 5.828 17.187 2 2171
r 0.110502 0 17 ack 40 ------- 0 0.539 22.30 0 3342
r 0.11063 0 17 ack 40 ------- 0 5.828 17.187 2 2171
+ 0.114514 0 17 ack 40 ------- 0 0.428 18.10 3 3510
- 0.114514 0 17 ack 40 ------- 0 0.428 18.10 3 3510
+ 0.115579 0 17 tcp 1540 ------- 0 11.1319 17.767 1 1628
- 0.115579 0 17 tcp 1540 ------- 0 11.1319 17.767 1 1628
r 0.116222 0 17 ack 40 ------- 0 0.428 18.10 3 3510
r 0.122087 0 17 tcp 1540 ------- 0 11.1319 17.767 1 1628
+ 0.123898 0 17 ack 40 ------- 0 15.1098 18.269 1 2732
- 0.123898 0 17 ack 40 ------- 0 15.1098 18.269 1 2732
+ 0.124913 0 17 ack 40 ------- 0 1.752 18.28 0 2384
- 0.124913 0 17 ack 40 ------- 0 1.752 18.28 0 2384
+ 0.125226 0 17 ack 40 ------- 0 25.508 17.1412 0 2867
- 0.125226 0 17 ack 40 ------- 0 25.508 17.1412 0 2867
+ 0.125418 0 17 tcp 40 ------- 0 13.1279 17.924 0 2110
- 0.125418 0 17 tcp 40 ------- 0 13.1279 17.924 0 2110
+ 0.12545 0 17 tcp 40 ------- 0 14.1327 17.1043 0 2229
+ 0.125482 0 17 ack 40 ------- 0 15.1098 18.269 2 2876
- 0.125546 0 17 tcp 40 ------- 0 14.1327 17.1043 0 2229
r 0.125606 0 17 ack 40 ------- 0 15.1098 18.269 1 2732
- 0.125674 0 17 ack 40 ------- 0 15.1098 18.269 2 2876
r 0.12662 0 17 ack 40 ------- 0 1.752 18.28 0 2384
+ 0.126827 0 17 tcp 1540 ------- 0 11.1319 17.767 2 1629
- 0.126827 0 17 tcp 1540 ------- 0 11.1319 17.767 2 1629
r 0.126934 0 17 ack 40 ------- 0 25.508 17.1412 0 2867
r 0.127126 0 17 tcp 40 ------- 0 13.1279 17.924 0 2110
r 0.127254 0 17 tcp 40 ------- 0 14.1327 17.1043 0 2229
r 0.127382 0 17 ack 40 ------- 0 15.1098 18.269 2 2876
+ 0.128091 0 17 tcp 40 ------- 0 11.1216 17.664 0 1636
+ 0.129298 0 17 ack 40 ------- 0 0.428 18.10 4 3993
- 0.131755 0 17 tcp 40 ------- 0 11.1216 17.664 0 1636
- 0.131883 0 17 ack 40 ------- 0 0.428 18.10 4 3993
+ 0.132389 0 17 ack 40 ------- 0 1.726 17.63 0 2554
- 0.132389 0 17 ack 40 ------- 0 1.726 17.63 0 2554
r 0.133335 0 17 tcp 1540 ------- 0 11.1319 17.767 2 1629
r 0.133463 0 17 tcp 40 ------- 0 11.1216 17.664 0 1636
r 0.133591 0 17 ack 40 ------- 0 0.428 18.10 4 3993
+ 0.133726 0 17 tcp 40 ------- 0 3.1254 18.359 0 3885
- 0.133726 0 17 tcp 40 ------- 0 3.1254 18.359 0 3885
r 0.134097 0 17 ack 40 ------- 0 1.726 17.63 0 2554
r 0.135434 0 17 tcp 40 ------- 0 3.1254 18.359 0 3885
+ 0.145499 0 17 tcp 40 ------- 0 10.883 17.655 0 2496
- 0.145499 0 17 tcp 40 ------- 0 10.883 17.655 0 2496
+ 0.14697 0 17 tcp 1540 ------- 0 15.1282 17.1131 1 3246
- 0.14697 0 17 tcp 1540 ------- 0 15.1282 17.1131 1 3246
r 0.147207 0 17 tcp 40 ------- 0 10.883 17.655 0 2496
+ 0.148234 0 17 tcp 1540 ------- 0 15.1282 17.1131 2 3247
+ 0.149498 0 17 tcp 40 ------- 0 12.978 17.809 0 3241
- 0.151898 0 17 tcp 1540 ------- 0 15.1282 17.1131 2 3247
+ 0.152058 0 17 tcp 40 ------- 0 15.1267 17.1116 0 3465
r 0.153478 0 17 tcp 1540 ------- 0 15.1282 17.1131 1 3246
+ 0.154444 0 17 tcp 1540 ------- 0 21.383 18.974 1 3248
+ 0.155754 0 17 tcp 1540 ------- 0 12.988 17.819 1 3402
- 0.156826 0 17 tcp 40 ------- 0 12.978 17.809 0 3241
- 0.156954 0 17 tcp 40 ------- 0 15.1267 17.1116 0 3465
+ 0.157018 0 17 ack 40 ------- 0 5.828 17.187 2 4102
- 0.157082 0 17 tcp 1540 ------- 0 21.383 18.974 1 3248
+ 0.158282 0 17 tcp 1540 ------- 0 12.988 17.819 2 3403
r 0.158406 0 17 tcp 1540 ------- 0 15.1282 17.1131 2 3247
r 0.158534 0 17 tcp 40 ------- 0 12.978 17.809 0 3241
r 0.158662 0 17 tcp 40 ------- 0 15.1267 17.1116 0 3465
+ 0.159372 0 17 tcp 1540 ------- 0 21.383 18.974 2 3249
+ 0.159436 0 17 ack 40 ------- 0 3.587 17.118 0 4740
+ 0.159468 0 17 tcp 40 ------- 0 21.374 18.965 0 3266
- 0.16201 0 17 tcp 1540 ------- 0 12.988 17.819 1 3402
+ 0.16337 0 17 ack 40 ------- 0 5.828 17.187 2 4143
+ 0.163434 0 17 ack 40 ------- 0 20.1185 17.1337 0 3951
r 0.16359 0 17 tcp 1540 ------- 0 21.383 18.974 1 3248
- 0.166938 0 17 ack 40 ------- 0 5.828 17.187 2 4102
- 0.167066 0 17 tcp 1540 ------- 0 12.988 17.819 2 3403
r 0.168518 0 17 tcp 1540 ------- 0 12.988 17.819 1 3402
r 0.168646 0 17 ack 40 ------- 0 5.828 17.187 2 4102
- 0.171994 0 17 tcp 1540 ------- 0 21.383 18.974 2 3249
+ 0.173241 0 17 tcp 40 ------- 0 0.1233 18.342 0 5585
r 0.173574 0 17 tcp 1540 ------- 0 12.988 17.819 2 3403
+ 0.17585 0 17 tcp 1540 ------- 0 13.1325 17.970 1 2416
+ 0.175978 0 17 tcp 40 ------- 0 14.1380 17.1096 0 3318
+ 0.17601 0 17 tcp 40 ------- 0 13.1331 17.976 0 3481
- 0.176922 0 17 ack 40 ------- 0 3.587 17.118 0 4740
- 0.17705 0 17 tcp 40 ------- 0 21.374 18.965 0 3266
- 0.177178 0 17 ack 40 ------- 0 5.828 17.187 2 4143
- 0.177306 0 17 ack 40 ------- 0 20.1185 17.1337 0 3951
- 0.177434 0 17 tcp 40 ------- 0 0.1233 18.342 0 5585
- 0.177562 0 17 tcp 1540 ------- 0 13.1325 17.970 1 2416
r 0.178502 0 17 tcp 1540 ------- 0 21.383 18.974 2 3249
r 0.17863 0 17 ack 40 ------- 0 3.587 17.118 0 4740
r 0.178758 0 17 tcp 40 ------- 0 21.374 18.965 0 3266
r 0.178886 0 17 ack 40 ------- 0 5.828 17.187 2 4143
r 0.179014 0 17 ack 40 ------- 0 20.1185 17.1337 0 3951
r 0.179142 0 17 tcp 40 ------- 0 0.1233 18.342 0 5585
- 0.18249 0 17 tcp 40 ------- 0 14.1380 17.1096 0 3318
- 0.182618 0 17 tcp 40 ------- 0 13.1331 17.976 0 3481
r 0.18407 0 17 tcp 1540 ------- 0 13.1325 17.970 1 2416
r 0.184198 0 17 tcp 40 ------- 0 14.1380 17.1096 0 3318
r 0.184326 0 17 tcp 40 ------- 0 13.1331 17.976 0 3481
+ 0.189039 0 17 tcp 40 ------- 0 3.1240 17.559 0 5822
- 0.189039 0 17 tcp 40 ------- 0 3.1240 17.559 0 5822
+ 0.189722 0 17 tcp 40 ------- 0 14.1307 17.1023 0 3806
- 0.189722 0 17 tcp 40 ------- 0 14.1307 17.1023 0 3806
r 0.190747 0 17 tcp 40 ------- 0 3.1240 17.559 0 5822
r 0.19143 0 17 tcp 40 ------- 0 14.1307 17.1023 0 3806
+ 0.194437 0 17 ack 40 ------- 0 1.755 18.31 0 4393
- 0.194437 0 17 ack 40 ------- 0 1.755 18.31 0 4393
r 0.196145 0 17 ack 40 ------- 0 1.755 18.31 0 4393
+ 0.199461 0 17 ack 40 ------- 0 1.726 17.63 1 4650
- 0.199461 0 17 ack 40 ------- 0 1.726 17.63 1 4650
+ 0.199706 0 17 ack 40 ------- 0 12.707 17.340 0 4031
- 0.199706 0 17 ack 40 ------- 0 12.707 17.340 0 4031
+ 0.20097 0 17 ack 40 ------- 0 25.508 17.1412 1 4750
- 0.20097 0 17 ack 40 ------- 0 25.508 17.1412 1 4750
+ 0.201002 0 17 ack 40 ------- 0 25.508 17.1412 2 4849
- 0.201098 0 17 ack 40 ------- 0 25.508 17.1412 2 4849
r 0.201169 0 17 ack 40 ------- 0 1.726 17.63 1 4650
r 0.201414 0 17 ack 40 ------- 0 12.707 17.340 0 4031
+ 0.201902 0 17 tcp 1540 ------- 0 3.1254 18.359 1 6278
- 0.201902 0 17 tcp 1540 ------- 0 3.1254 18.359 1 6278
r 0.202678 0 17 ack 40 ------- 0 25.508 17.1412 1 4750
r 0.202806 0 17 ack 40 ------- 0 25.508 17.1412 2 4849
+ 0.203134 0 17 tcp 1540 ------- 0 3.1254 18.359 2 6279
+ 0.204735 0 17 ack 40 ------- 0 3.587 17.118 1 6426
+ 0.204762 0 17 tcp 40 ------- 0 14.1318 17.1034 0 4234
+ 0.204794 0 17 tcp 40 ------- 0 14.1383 17.1099 0 4441
+ 0.204826 0 17 ack 40 ------- 0 12.732 17.365 2 4605
+ 0.204858 0 17 ack 40 ------- 0 12.684 17.317 0 4606
- 0.20683 0 17 tcp 1540 ------- 0 3.1254 18.359 2 6279
r 0.20841 0 17 tcp 1540 ------- 0 3.1254 18.359 1 6278
+ 0.209099 0 17 ack 40 ------- 0 0.412 17.3 0 6824
+ 0.209323 0 17 ack 40 ------- 0 2.515 17.87 0 5245
+ 0.209882 0 17 tcp 40 ------- 0 14.1436 18.739 0 4905
+ 0.21059 0 17 ack 40 ------- 0 3.587 17.118 2 6653
- 0.211758 0 17 ack 40 ------- 0 3.587 17.118 1 6426
- 0.211886 0 17 tcp 40 ------- 0 14.1318 17.1034 0 4234
- 0.212014 0 17 tcp 40 ------- 0 14.1383 17.1099 0 4441
- 0.212142 0 17 ack 40 ------- 0 12.732 17.365 2 4605
- 0.21227 0 17 ack 40 ------- 0 12.684 17.317 0 4606
- 0.212398 0 17 ack 40 ------- 0 0.412 17.3 0 6824
+ 0.212442 0 17 ack 40 ------- 0 15.1080 17.431 0 5138
- 0.212526 0 17 ack 40 ------- 0 2.515 17.87 0 5245
- 0.212654 0 17 tcp 40 ------- 0 14.1436 18.739 0 4905
- 0.212782 0 17 ack 40 ------- 0 3.587 17.118 2 6653
- 0.21291 0 17 ack 40 ------- 0 15.1080 17.431 0 5138
r 0.213338 0 17 tcp 1540 ------- 0 3.1254 18.359 2 6279
r 0.213466 0 17 ack 40 ------- 0 3.587 17.118 1 6426
r 0.213594 0 17 tcp 40 ------- 0 14.1318 17.1034 0 4234
r 0.213722 0 17 tcp 40 ------- 0 14.1383 17.1099 0 4441
r 0.21385 0 17 ack 40 ------- 0 12.732 17.365 2 4605
r 0.213978 0 17 ack 40 ------- 0 12.684 17.317 0 4606
r 0.214106 0 17 ack 40 ------- 0 0.412 17.3 0 6824
r 0.214234 0 17 ack 40 ------- 0 2.515 17.87 0 5245
r 0.214362 0 17 tcp 40 ------- 0 14.1436 18.739 0 4905
r 0.21449 0 17 ack 40 ------- 0 3.587 17.118 2 6653
r 0.214618 0 17 ack 40 ------- 0 15.1080 17.431 0 5138
+ 0.219333 0 17 tcp 40 ------- 0 1.1768 17.529 0 5410
- 0.219333 0 17 tcp 40 ------- 0 1.1768 17.529 0 5410
r 0.221041 0 17 tcp 40 ------- 0 1.1768 17.529 0 5410
+ 0.222554 0 17 ack 40 ------- 0 15.1098 18.269 3 5562
- 0.222554 0 17 ack 40 ------- 0 15.1098 18.269 3 5562
+ 0.223067 0 17 ack 40 ------- 0 10.617 17.268 0 4302
- 0.223067 0 17 ack 40 ------- 0 10.617 17.268 0 4302
+ 0.224142 0 17 tcp 1540 ------- 0 3.1240 17.559 1 7052
- 0.224142 0 17 tcp 1540 ------- 0 3.1240 17.559 1 7052
r 0.224262 0 17 ack 40 ------- 0 15.1098 18.269 3 5562
+ 0.224325 0 17 ack 40 ------- 0 1.752 18.28 1 5696
r 0.224775 0 17 ack 40 ------- 0 10.617 17.268 0 4302
+ 0.225018 0 17 tcp 1540 ------- 0 15.1282 17.1131 5 5563
+ 0.225374 0 17 tcp 1540 ------- 0 3.1240 17.559 2 7053
+ 0.22625 0 17 tcp 1540 ------- 0 15.1282 17.1131 6 5564
+ 0.227482 0 17 tcp 1540 ------- 0 15.1267 17.1116 1 5568
- 0.22907 0 17 ack 40 ------- 0 1.752 18.28 1 5696
- 0.229198 0 17 tcp 1540 ------- 0 15.1282 17.1131 5 5563
+ 0.229946 0 17 tcp 1540 ------- 0 15.1267 17.1116 2 5569
r 0.23065 0 17 tcp 1540 ------- 0 3.1240 17.559 1 7052
r 0.230778 0 17 ack 40 ------- 0 1.752 18.28 1 5696
+ 0.231242 0 17 tcp 1540 ------- 0 14.1327 17.1043 2 5252
+ 0.231813 0 17 ack 40 ------- 0 1.752 18.28 2 6076
- 0.234126 0 17 tcp 1540 ------- 0 3.1240 17.559 2 7053
r 0.235706 0 17 tcp 1540 ------- 0 15.1282 17.1131 5 5563
- 0.239054 0 17 tcp 1540 ------- 0 15.1282 17.1131 6 5564
r 0.240634 0 17 tcp 1540 ------- 0 3.1240 17.559 2 7053
+ 0.24145 0 17 ack 40 ------- 0 5.828 17.187 2 6672
+ 0.24343 0 17 tcp 40 ------- 0 0.1218 17.502 0 8069
- 0.243982 0 17 tcp 1540 ------- 0 15.1267 17.1116 1 5568
+ 0.245338 0 17 tcp 40 ------- 0 13.1227 17.872 0 5980
r 0.245562 0 17 tcp 1540 ------- 0 15.1282 17.1131 6 5564
- 0.24891 0 17 tcp 1540 ------- 0 15.1267 17.1116 2 5569
r 0.25049 0 17 tcp 1540 ------- 0 15.1267 17.1116 1 5568
+ 0.253077 0 17 ack 40 ------- 0 24.933 17.1397 0 5670
- 0.253838 0 17 tcp 1540 ------- 0 14.1327 17.1043 2 5252
r 0.255418 0 17 tcp 1540 ------- 0 15.1267 17.1116 2 5569
+ 0.255439 0 17 tcp 1540 ------- 0 12.978 17.809 2 6829
+ 0.255605 0 17 ack 40 ------- 0 1.726 17.63 3 7131
+ 0.258165 0 17 ack 40 ------- 0 1.726 17.63 4 7301
- 0.258766 0 17 ack 40 ------- 0 1.752 18.28 2 6076
- 0.258894 0 17 ack 40 ------- 0 5.828 17.187 2 6672
- 0.259022 0 17 tcp 40 ------- 0 0.1218 17.502 0 8069
- 0.25915 0 17 tcp 40 ------- 0 13.1227 17.872 0 5980
- 0.259278 0 17 ack 40 ------- 0 24.933 17.1397 0 5670
- 0.259406 0 17 tcp 1540 ------- 0 12.978 17.809 2 6829
r 0.260346 0 17 tcp 1540 ------- 0 14.1327 17.1043 2 5252
r 0.260474 0 17 ack 40 ------- 0 1.752 18.28 2 6076
r 0.260602 0 17 ack 40 ------- 0 5.828 17.187 2 6672
+ 0.260655 0 17 tcp 1540 ------- 0 12.988 17.819 3 7144
r 0.26073 0 17 tcp 40 ------- 0 0.1218 17.502 0 8069
r 0.260858 0 17 tcp 40 ------- 0 13.1227 17.872 0 5980
r 0.260986 0 17 ack 40 ------- 0 24.933 17.1397 0 5670
+ 0.263986 0 17 tcp 40 ------- 0 0.1392 22.665 0 8791
- 0.264334 0 17 ack 40 ------- 0 1.726 17.63 3 7131
- 0.264462 0 17 ack 40 ------- 0 1.726 17.63 4 7301
- 0.26459 0 17 tcp 1540 ------- 0 12.988 17.819 3 7144
r 0.265914 0 17 tcp 1540 ------- 0 12.978 17.809 2 6829
r 0.266042 0 17 ack 40 ------- 0 1.726 17.63 3 7131
r 0.26617 0 17 ack 40 ------- 0 1.726 17.63 4 7301
+ 0.266943 0 17 tcp 1540 ------- 0 12.988 17.819 4 7145
- 0.269518 0 17 tcp 40 ------- 0 0.1392 22.665 0 8791
- 0.269646 0 17 tcp 1540 ------- 0 12.988 17.819 4 7145
r 0.271098 0 17 tcp 1540 ------- 0 12.988 17.819 3 7144
r 0.271226 0 17 tcp 40 ------- 0 0.1392 22.665 0 8791
+ 0.273745 0 17 ack 40 ------- 0 21.893 17.1348 0 5020
+ 0.273969 0 17 ack 40 ------- 0 3.587 17.118 3 8910
- 0.274574 0 17 ack 40 ------- 0 21.893 17.1348 0 5020
- 0.274702 0 17 ack 40 ------- 0 3.587 17.118 3 8910
r 0.276154 0 17 tcp 1540 ------- 0 12.988 17.819 4 7145
r 0.276282 0 17 ack 40 ------- 0 21.893 17.1348 0 5020
r 0.27641 0 17 ack 40 ------- 0 3.587 17.118 3 8910
+ 0.278773 0 17 tcp 40 ------- 0 6.1309 17.627 0 7027
- 0.278773 0 17 tcp 40 ------- 0 6.1309 17.627 0 7027
+ 0.278837 0 17 tcp 40 ------- 0 6.1292 17.610 0 7040
- 0.278901 0 17 tcp 40 ------- 0 6.1292 17.610 0 7040
r 0.280481 0 17 tcp 40 ------- 0 6.1309 17.627 0 7027
r 0.280609 0 17 tcp 40 ------- 0 6.1292 17.610 0 7040
+ 0.281105 0 17 ack 40 ------- 0 3.587 17.118 4 9190
- 0.281105 0 17 ack 40 ------- 0 3.587 17.118 4 9190
r 0.282813 0 17 ack 40 ------- 0 3.587 17.118 4 9190
+ 0.283183 0 17 tcp 1540 ------- 0 12.988 17.819 5 7158
- 0.283183 0 17 tcp 1540 ------- 0 12.988 17.819 5 7158
+ 0.284447 0 17 tcp 1540 ------- 0 12.988 17.819 6 7159
+ 0.284511 0 17 tcp 40 ------- 0 15.1300 17.1149 0 7622
- 0.288111 0 17 tcp 1540 ------- 0 12.988 17.819 6 7159
+ 0.288542 0 17 ack 40 ------- 0 0.412 17.3 1 9812
+ 0.289199 0 17 tcp 40 ------- 0 21.371 18.962 0 5446
r 0.289691 0 17 tcp 1540 ------- 0 12.988 17.819 5 7158
+ 0.292858 0 17 ack 40 ------- 0 16.734 17.456 0 7019
- 0.293039 0 17 tcp 40 ------- 0 15.1300 17.1149 0 7622
- 0.293167 0 17 ack 40 ------- 0 0.412 17.3 1 9812
- 0.293295 0 17 tcp 40 ------- 0 21.371 18.962 0 5446
- 0.293423 0 17 ack 40 ------- 0 16.734 17.456 0 7019
+ 0.29347 0 17 ack 40 ------- 0 0.412 17.3 2 9992
- 0.293551 0 17 ack 40 ------- 0 0.412 17.3 2 9992
r 0.294619 0 17 tcp 1540 ------- 0 12.988 17.819 6 7159
r 0.294747 0 17 tcp 40 ------- 0 15.1300 17.1149 0 7622
r 0.294875 0 17 ack 40 ------- 0 0.412 17.3 1 9812
r 0.295003 0 17 tcp 40 ------- 0 21.371 18.962 0 5446
r 0.295131 0 17 ack 40 ------- 0 16.734 17.456 0 7019
r 0.295259 0 17 ack 40 ------- 0 0.412 17.3 2 9992
+ 0.297195 0 17 ack 40 ------- 0 10.642 17.293 0 7970
- 0.297195 0 17 ack 40 ------- 0 10.642 17.293 0 7970
r 0.298903 0 17 ack 40 ------- 0 10.642 17.293 0 7970
+ 0.299487 0 17 tcp 40 ------- 0 5.1470 17.576 0 9023
- 0.299487 0 17 tcp 40 ------- 0 5.1470 17.576 0 9023
+ 0.299519 0 17 ack 40 ------- 0 20.1185 17.1337 1 8673
+ 0.299551 0 17 ack 40 ------- 0 25.508 17.1412 3 8894
- 0.299615 0 17 ack 40 ------- 0 20.1185 17.1337 1 8673
- 0.299743 0 17 ack 40 ------- 0 25.508 17.1412 3 8894
+ 0.300847 0 17 tcp 40 ------- 0 13.1311 17.956 0 7035
- 0.300847 0 17 tcp 40 ------- 0 13.1311 17.956 0 7035
r 0.301195 0 17 tcp 40 ------- 0 5.1470 17.576 0 9023
r 0.301323 0 17 ack 40 ------- 0 20.1185 17.1337 1 8673
r 0.301451 0 17 ack 40 ------- 0 25.508 17.1412 3 8894
+ 0.302239 0 17 tcp 40 ------- 0 15.1273 17.1122 0 7943
- 0.302239 0 17 tcp 40 ------- 0 15.1273 17.1122 0 7943
r 0.302555 0 17 tcp 40 ------- 0 13.1311 17.956 0 7035
r 0.303947 0 17 tcp 40 ------- 0 15.1273 17.1122 0 7943
+ 0.304895 0 17 tcp 1540 ------- 0 14.1380 17.1096 1 7962
- 0.304895 0 17 tcp 1540 ------- 0 14.1380 17.1096 1 7962
+ 0.304959 0 17 ack 40 ------- 0 12.707 17.340 2 8142
+ 0.304991 0 17 tcp 40 ------- 0 12.971 17.802 0 8229
+ 0.306959 0 17 ack 40 ------- 0 25.508 17.1412 4 9505
+ 0.308255 0 17 tcp 40 ------- 0 14.1376 17.1092 0 8961
- 0.309823 0 17 ack 40 ------- 0 12.707 17.340 2 8142
- 0.309951 0 17 tcp 40 ------- 0 12.971 17.802 0 8229
- 0.310079 0 17 ack 40 ------- 0 25.508 17.1412 4 9505
- 0.310207 0 17 tcp 40 ------- 0 14.1376 17.1092 0 8961
+ 0.310222 0 17 ack 40 ------- 0 25.508 17.1412 5 9748
+ 0.310254 0 17 ack 40 ------- 0 25.508 17.1412 6 9828
- 0.310335 0 17 ack 40 ------- 0 25.508 17.1412 5 9748
- 0.310463 0 17 ack 40 ------- 0 25.508 17.1412 6 9828
r 0.311403 0 17 tcp 1540 ------- 0 14.1380 17.1096 1 7962
r 0.311531 0 17 ack 40 ------- 0 12.707 17.340 2 8142
r 0.311659 0 17 tcp 40 ------- 0 12.971 17.802 0 8229
r 0.311787 0 17 ack 40 ------- 0 25.508 17.1412 4 9505
r 0.311915 0 17 tcp 40 ------- 0 14.1376 17.1092 0 8961
r 0.312043 0 17 ack 40 ------- 0 25.508 17.1412 5 9748
r 0.312171 0 17 ack 40 ------- 0 25.508 17.1412 6 9828
+ 0.318974 0 17 tcp 40 ------- 0 15.1271 17.1120 0 9714
- 0.318974 0 17 tcp 40 ------- 0 15.1271 17.1120 0 9714
+ 0.319166 0 17 tcp 40 ------- 0 14.1451 18.754 0 9528
- 0.319166 0 17 tcp 40 ------- 0 14.1451 18.754 0 9528
+ 0.319809 0 17 tcp 40 ------- 0 3.1252 17.571 0 10471
- 0.319809 0 17 tcp 40 ------- 0 3.1252 17.571 0 10471
r 0.320682 0 17 tcp 40 ------- 0 15.1271 17.1120 0 9714
r 0.320874 0 17 tcp 40 ------- 0 14.1451 18.754 0 9528
r 0.321517 0 17 tcp 40 ------- 0 3.1252 17.571 0 10471
+ 0.32675 0 17 ack 40 ------- 0 12.732 17.365 3 10261
- 0.32675 0 17 ack 40 ------- 0 12.732 17.365 3 10261
+ 0.32707 0 17 ack 40 ------- 0 12.732 17.365 4 10523
- 0.32707 0 17 ack 40 ------- 0 12.732 17.365 4 10523
+ 0.327553 0 17 ack 40 ------- 0 3.587 17.118 5 10975
- 0.327553 0 17 ack 40 ------- 0 3.587 17.118 5 10975
r 0.328458 0 17 ack 40 ------- 0 12.732 17.365 3 10261
r 0.328778 0 17 ack 40 ------- 0 12.732 17.365 4 10523
+ 0.328849 0 17 ack 40 ------- 0 3.587 17.118 6 11147
- 0.328849 0 17 ack 40 ------- 0 3.587 17.118 6 11147
r 0.329261 0 17 ack 40 ------- 0 3.587 17.118 5 10975
+ 0.329534 0 17 tcp 1540 ------- 0 13.1325 17.970 3 9115
- 0.329534 0 17 tcp 1540 ------- 0 13.1325 17.970 3 9115
r 0.330557 0 17 ack 40 ------- 0 3.587 17.118 6 11147
+ 0.334622 0 17 tcp 1540 ------- 0 13.1325 17.970 4 9116
- 0.334622 0 17 tcp 1540 ------- 0 13.1325 17.970 4 9116
+ 0.33507 0 17 ack 40 ------- 0 0.411 17.2 0 11715
r 0.336042 0 17 tcp 1540 ------- 0 13.1325 17.970 3 9115
+ 0.339195 0 17 ack 40 ------- 0 2.515 17.87 1 10722
- 0.33955 0 17 ack 40 ------- 0 0.411 17.2 0 11715
- 0.339678 0 17 ack 40 ------- 0 2.515 17.87 1 10722
+ 0.340254 0 17 tcp 1540 ------- 0 0.1218 17.502 1 11923
- 0.340254 0 17 tcp 1540 ------- 0 0.1218 17.502 1 11923
+ 0.340254 0 17 tcp 1540 ------- 0 0.1218 17.502 2 11924
+ 0.340491 0 17 ack 40 ------- 0 2.515 17.87 2 10844
r 0.34113 0 17 tcp 1540 ------- 0 13.1325 17.970 4 9116
r 0.341258 0 17 ack 40 ------- 0 0.411 17.2 0 11715
r 0.341386 0 17 ack 40 ------- 0 2.515 17.87 1 10722
- 0.345182 0 17 tcp 1540 ------- 0 0.1218 17.502 2 11924
+ 0.345402 0 17 tcp 40 ------- 0 24.343 17.1260 0 9286
r 0.346762 0 17 tcp 1540 ------- 0 0.1218 17.502 1 11923
+ 0.346773 0 17 tcp 1540 ------- 0 3.1240 17.559 3 11887
+ 0.347898 0 17 tcp 40 ------- 0 1.1905 22.667 0 10715
+ 0.348005 0 17 tcp 1540 ------- 0 3.1240 17.559 4 11888
+ 0.349324 0 17 ack 40 ------- 0 5.841 17.200 0 12003
- 0.35011 0 17 ack 40 ------- 0 2.515 17.87 2 10844
- 0.350238 0 17 tcp 40 ------- 0 24.343 17.1260 0 9286
- 0.350366 0 17 tcp 1540 ------- 0 3.1240 17.559 3 11887
r 0.35169 0 17 tcp 1540 ------- 0 0.1218 17.502 2 11924
r 0.351818 0 17 ack 40 ------- 0 2.515 17.87 2 10844
r 0.351946 0 17 tcp 40 ------- 0 24.343 17.1260 0 9286
+ 0.354122 0 17 tcp 40 ------- 0 1.1759 17.520 0 10878
- 0.355294 0 17 tcp 40 ------- 0 1.1905 22.667 0 10715
- 0.355422 0 17 tcp 1540 ------- 0 3.1240 17.559 4 11888
r 0.356874 0 17 tcp 1540 ------- 0 3.1240 17.559 3 11887
r 0.357002 0 17 tcp 40 ------- 0 1.1905 22.667 0 10715
- 0.36035 0 17 ack 40 ------- 0 5.841 17.200 0 12003
- 0.360478 0 17 tcp 40 ------- 0 1.1759 17.520 0 10878
r 0.36193 0 17 tcp 1540 ------- 0 3.1240 17.559 4 11888
r 0.362058 0 17 ack 40 ------- 0 5.841 17.200 0 12003
r 0.362186 0 17 tcp 40 ------- 0 1.1759 17.520 0 10878
+ 0.36326 0 17 tcp 40 ------- 0 15.1316 18.776 0 11386
- 0.36326 0 17 tcp 40 ------- 0 15.1316 18.776 0 11386
r 0.364968 0 17 tcp 40 ------- 0 15.1316 18.776 0 11386
+ 0.36537 0 17 tcp 1540 ------- 0 1.1768 17.529 1 11339
- 0.36537 0 17 tcp 1540 ------- 0 1.1768 17.529 1 11339
+ 0.366602 0 17 tcp 1540 ------- 0 1.1768 17.529 2 11340
- 0.370298 0 17 tcp 1540 ------- 0 1.1768 17.529 2 11340
+ 0.370554 0 17 tcp 40 ------- 0 6.1285 17.603 0 9486
r 0.371878 0 17 tcp 1540 ------- 0 1.1768 17.529 1 11339
+ 0.37214 0 17 tcp 1540 ---A--- 0 13.1308 17.953 1 9498
+ 0.372172 0 17 tcp 40 ------- 0 13.1333 17.978 0 9694
- 0.375226 0 17 tcp 40 ------- 0 6.1285 17.603 0 9486
- 0.375354 0 17 tcp 1540 ---A--- 0 13.1308 17.953 1 9498
+ 0.3759 0 17 ack 40 ------- 0 5.828 17.187 3 12480
+ 0.376803 0 17 tcp 40 ------- 0 0.1231 18.340 0 13357
r 0.376806 0 17 tcp 1540 ------- 0 1.1768 17.529 2 11340
r 0.376934 0 17 tcp 40 ------- 0 6.1285 17.603 0 9486
+ 0.378123 0 17 ack 40 ------- 0 10.642 17.293 1 11655
- 0.380282 0 17 tcp 40 ------- 0 13.1333 17.978 0 9694
- 0.38041 0 17 ack 40 ------- 0 5.828 17.187 3 12480
- 0.380538 0 17 tcp 40 ------- 0 0.1231 18.340 0 13357
- 0.380666 0 17 ack 40 ------- 0 10.642 17.293 1 11655
r 0.381862 0 17 tcp 1540 ---A--- 0 13.1308 17.953 1 9498
r 0.38199 0 17 tcp 40 ------- 0 13.1333 17.978 0 9694
r 0.382118 0 17 ack 40 ------- 0 5.828 17.187 3 12480
r 0.382246 0 17 tcp 40 ------- 0 0.1231 18.340 0 13357
r 0.382374 0 17 ack 40 ------- 0 10.642 17.293 1 11655
+ 0.383179 0 17 ack 40 ------- 0 10.642 17.293 2 11862
- 0.383179 0 17 ack 40 ------- 0 10.642 17.293 2 11862
r 0.384887 0 17 ack 40 ------- 0 10.642 17.293 2 11862
+ 0.387099 0 17 tcp 40 ------- 0 10.887 17.659 0 12168
- 0.387099 0 17 tcp 40 ------- 0 10.887 17.659 0 12168
r 0.388807 0 17 tcp 40 ------- 0 10.887 17.659 0 12168
+ 0.390874 0 17 ack 40 ------- 0 1.726 17.63 5 12692
- 0.390874 0 17 ack 40 ------- 0 1.726 17.63 5 12692
+ 0.39097 0 17 ack 40 ------- 0 1.726 17.63 6 12893
- 0.391002 0 17 ack 40 ------- 0 1.726 17.63 6 12893
r 0.392582 0 17 ack 40 ------- 0 1.726 17.63 5 12692
r 0.39271 0 17 ack 40 ------- 0 1.726 17.63 6 12893
+ 0.393498 0 17 ack 40 ------- 0 1.726 17.63 7 13015
- 0.393498 0 17 ack 40 ------- 0 1.726 17.63 7 13015
r 0.395206 0 17 ack 40 ------- 0 1.726 17.63 7 13015
+ 0.399818 0 17 tcp 40 ------- 0 1.1915 22.677 0 13272
- 0.399818 0 17 tcp 40 ------- 0 1.1915 22.677 0 13272
+ 0.399946 0 17 ack 40 ------- 0 1.726 17.63 8 13393
- 0.399946 0 17 ack 40 ------- 0 1.726 17.63 8 13393
+ 0.40001 0 17 tcp 40 ------- 0 1.1908 22.670 0 13442
- 0.400074 0 17 tcp 40 ------- 0 1.1908 22.670 0 13442
r 0.401526 0 17 tcp 40 ------- 0 1.1915 22.677 0 13272
r 0.401654 0 17 ack 40 ------- 0 1.726 17.63 8 13393
r 0.401782 0 17 tcp 40 ------- 0 1.1908 22.670 0 13442
+ 0.402602 0 17 tcp 40 ------- 0 24.340 17.1257 0 11710
- 0.402602 0 17 tcp 40 ------- 0 24.340 17.1257 0 11710
+ 0.403452 0 17 ack 40 ------- 0 12.732 17.365 5 11635
- 0.403452 0 17 ack 40 ------- 0 12.732 17.365 5 11635
r 0.40431 0 17 tcp 40 ------- 0 24.340 17.1257 0 11710
+ 0.404475 0 17 tcp 40 ------- 0 9.1160 17.643 0 11935
- 0.404475 0 17 tcp 40 ------- 0 9.1160 17.643 0 11935
+ 0.404703 0 17 tcp 40 ------- 0 0.1227 18.336 0 14530
- 0.404703 0 17 tcp 40 ------- 0 0.1227 18.336 0 14530
r 0.40516 0 17 ack 40 ------- 0 12.732 17.365 5 11635
+ 0.405651 0 17 ack 40 ------- 0 3.587 17.118 7 14228
- 0.405651 0 17 ack 40 ------- 0 3.587 17.118 7 14228
+ 0.405683 0 17 tcp 40 ------- 0 3.1241 17.560 0 14232
- 0.405779 0 17 tcp 40 ------- 0 3.1241 17.560 0 14232
+ 0.40598 0 17 ack 40 ------- 0 15.1080 17.431 1 11719
- 0.40598 0 17 ack 40 ------- 0 15.1080 17.431 1 11719
r 0.406183 0 17 tcp 40 ------- 0 9.1160 17.643 0 11935
r 0.406411 0 17 tcp 40 ------- 0 0.1227 18.336 0 14530
r 0.407358 0 17 ack 40 ------- 0 3.587 17.118 7 14228
r 0.407486 0 17 tcp 40 ------- 0 3.1241 17.560 0 14232
r 0.407688 0 17 ack 40 ------- 0 15.1080 17.431 1 11719
+ 0.413106 0 17 tcp 1540 ---A--- 0 3.1254 18.359 1 14517
- 0.413106 0 17 tcp 1540 ---A--- 0 3.1254 18.359 1 14517
+ 0.41589 0 17 ack 40 ------- 0 3.587 17.118 8 14698
- 0.418034 0 17 ack 40 ------- 0 3.587 17.118 8 14698
+ 0.418716 0 17 ack 40 ------- 0 12.684 17.317 1 11802
- 0.418716 0 17 ack 40 ------- 0 12.684 17.317 1 11802
r 0.419614 0 17 tcp 1540 ---A--- 0 3.1254 18.359 1 14517
r 0.419742 0 17 ack 40 ------- 0 3.587 17.118 8 14698
+ 0.41998 0 17 tcp 1540 ------- 0 15.1282 17.1131 7 11876
- 0.41998 0 17 tcp 1540 ------- 0 15.1282 17.1131 7 11876
+ 0.420076 0 17 tcp 40 ------- 0 15.1315 18.775 0 11998
r 0.420424 0 17 ack 40 ------- 0 12.684 17.317 1 11802
+ 0.42438 0 17 tcp 1540 ---A--- 0 15.1282 17.1131 3 13171
- 0.424908 0 17 tcp 40 ------- 0 15.1315 18.775 0 11998
- 0.425036 0 17 tcp 1540 ---A--- 0 15.1282 17.1131 3 13171
r 0.426488 0 17 tcp 1540 ------- 0 15.1282 17.1131 7 11876
r 0.426616 0 17 tcp 40 ------- 0 15.1315 18.775 0 11998
+ 0.429067 0 17 tcp 40 ------- 0 11.1222 17.670 0 9829
- 0.429964 0 17 tcp 40 ------- 0 11.1222 17.670 0 9829
r 0.431544 0 17 tcp 1540 ---A--- 0 15.1282 17.1131 3 13171