+ 0.008421 12 15 rtProtoDV 26 ------- 0 12.1311 15.1521 -1 230
- 0.008421 12 15 rtProtoDV 26 ------- 0 12.1311 15.1521 -1 230
+ 0.008808 12 15 rtProtoDV 26 ------- 0 12.1311 15.1521 -1 238
- 0.008808 12 15 rtProtoDV 26 ------- 0 12.1311 15.1521 -1 238
r 0.009747 12 15 rtProtoDV 26 ------- 0 12.1311 15.1521 -1 230
r 0.010134 12 15 rtProtoDV 26 ------- 0 12.1311 15.1521 -1 238
+ 0.010463 12 15 rtProtoDV 26 ------- 0 12.1311 15.1521 -1 319
- 0.010463 12 15 rtProtoDV 26 ------- 0 12.1311 15.1521 -1 319
r 0.011789 12 15 rtProtoDV 26 ------- 0 12.1311 15.1521 -1 319
+ 0.011847 12 15 rtProtoDV 26 ------- 0 12.1311 15.1521 -1 417
- 0.011847 12 15 rtProtoDV 26 ------- 0 12.1311 15.1521 -1 417
+ 0.012216 12 15 rtProtoDV 26 ------- 0 12.1311 15.1521 -1 429
- 0.012216 12 15 rtProtoDV 26 ------- 0 12.1311 15.1521 -1 429
+ 0.012579 12 15 rtProtoDV 26 ------- 0 12.1311 15.1521 -1 450
- 0.012579 12 15 rtProtoDV 26 ------- 0 12.1311 15.1521 -1 450
+ 0.012966 12 15 rtProtoDV 26 ------- 0 12.1311 15.1521 -1 465
- 0.012966 12 15 rtProtoDV 26 ------- 0 12.1311 15.1521 -1 465
r 0.013173 12 15 rtProtoDV 26 ------- 0 12.1311 15.1521 -1 417
r 0.013542 12 15 rtProtoDV 26 ------- 0 12.1311 15.1521 -1 429
r 0.013905 12 15 rtProtoDV 26 ------- 0 12.1311 15.1521 -1 450
r 0.014292 12 15 rtProtoDV 26 ------- 0 12.1311 15.1521 -1 465
+ 0.018065 12 15 tcp 40 ------- 0 12.47 1.563 0 678
- 0.018065 12 15 tcp 40 ------- 0 12.47 1.563 0 678
r 0.019402 12 15 tcp 40 ------- 0 12.47 1.563 0 678
+ 0.023783 12 15 tcp 40 ------- 0 11.1193 14.880 0 518
- 0.023783 12 15 tcp 40 ------- 0 11.1193 14.880 0 518
r 0.02512 12 15 tcp 40 ------- 0 11.1193 14.880 0 518
+ 0.025866 12 15 ack 40 ------- 0 12.673 15.383 0 890
- 0.025866 12 15 ack 40 ------- 0 12.673 15.383 0 890
r 0.027204 12 15 ack 40 ------- 0 12.673 15.383 0 890
+ 0.029741 12 15 ack 40 ------- 0 12.673 15.383 1 987
- 0.029741 12 15 ack 40 ------- 0 12.673 15.383 1 987
+ 0.030973 12 15 ack 40 ------- 0 12.673 15.383 2 1014
- 0.030973 12 15 ack 40 ------- 0 12.673 15.383 2 1014
r 0.031078 12 15 ack 40 ------- 0 12.673 15.383 1 987
+ 0.031793 12 15 tcp 40 ------- 0 12.1212 20.1050 0 1040
- 0.031793 12 15 tcp 40 ------- 0 12.1212 20.1050 0 1040
r 0.03231 12 15 ack 40 ------- 0 12.673 15.383 2 1014
r 0.03313 12 15 tcp 40 ------- 0 12.1212 20.1050 0 1040
+ 0.033615 12 15 ack 40 ------- 0 12.673 15.383 3 1077
- 0.033615 12 15 ack 40 ------- 0 12.673 15.383 3 1077
+ 0.033895 12 15 tcp 40 ------- 0 11.169 4.423 0 751
- 0.033895 12 15 tcp 40 ------- 0 11.169 4.423 0 751
+ 0.034023 12 15 tcp 40 ------- 0 11.1381 20.975 0 767
- 0.034023 12 15 tcp 40 ------- 0 11.1381 20.975 0 767
+ 0.034847 12 15 ack 40 ------- 0 12.673 15.383 4 1096
- 0.034847 12 15 ack 40 ------- 0 12.673 15.383 4 1096
r 0.034953 12 15 ack 40 ------- 0 12.673 15.383 3 1077
r 0.035232 12 15 tcp 40 ------- 0 11.169 4.423 0 751
r 0.03536 12 15 tcp 40 ------- 0 11.1381 20.975 0 767
r 0.036185 12 15 ack 40 ------- 0 12.673 15.383 4 1096
+ 0.038543 12 15 ack 40 ------- 0 12.673 15.383 5 1189
- 0.038543 12 15 ack 40 ------- 0 12.673 15.383 5 1189
+ 0.039775 12 15 ack 40 ------- 0 12.673 15.383 6 1222
- 0.039775 12 15 ack 40 ------- 0 12.673 15.383 6 1222
r 0.039881 12 15 ack 40 ------- 0 12.673 15.383 5 1189
+ 0.041007 12 15 ack 40 ------- 0 12.673 15.383 7 1252
- 0.041007 12 15 ack 40 ------- 0 12.673 15.383 7 1252
r 0.041113 12 15 ack 40 ------- 0 12.673 15.383 6 1222
+ 0.042239 12 15 ack 40 ------- 0 12.673 15.383 8 1282
- 0.042239 12 15 ack 40 ------- 0 12.673 15.383 8 1282
r 0.042345 12 15 ack 40 ------- 0 12.673 15.383 7 1252
+ 0.042564 12 15 tcp 40 ------- 0 12.988 17.819 0 1294
- 0.042564 12 15 tcp 40 ------- 0 12.988 17.819 0 1294
r 0.043577 12 15 ack 40 ------- 0 12.673 15.383 8 1282
r 0.043901 12 15 tcp 40 ------- 0 12.988 17.819 0 1294
+ 0.044007 12 15 tcp 40 ------- 0 11.197 5.517 0 895
- 0.044007 12 15 tcp 40 ------- 0 11.197 5.517 0 895
+ 0.044086 12 15 tcp 40 ------- 0 12.1177 20.1015 0 1336
- 0.044086 12 15 tcp 40 ------- 0 12.1177 20.1015 0 1336
r 0.045344 12 15 tcp 40 ------- 0 11.197 5.517 0 895
r 0.045423 12 15 tcp 40 ------- 0 12.1177 20.1015 0 1336
+ 0.045935 12 15 ack 40 ------- 0 12.673 15.383 9 1382
- 0.045935 12 15 ack 40 ------- 0 12.673 15.383 9 1382
+ 0.047167 12 15 ack 40 ------- 0 12.673 15.383 10 1408
- 0.047167 12 15 ack 40 ------- 0 12.673 15.383 10 1408
+ 0.047231 12 15 ack 40 ------- 0 12.660 15.370 0 1412
- 0.047231 12 15 ack 40 ------- 0 12.660 15.370 0 1412
r 0.047273 12 15 ack 40 ------- 0 12.673 15.383 9 1382
+ 0.048182 12 15 tcp 40 ------- 0 12.1174 20.1012 0 1435
- 0.048182 12 15 tcp 40 ------- 0 12.1174 20.1012 0 1435
+ 0.048495 12 15 ack 40 ------- 0 12.673 15.383 11 1441
- 0.048495 12 15 ack 40 ------- 0 12.673 15.383 11 1441
r 0.048505 12 15 ack 40 ------- 0 12.673 15.383 10 1408
r 0.048569 12 15 ack 40 ------- 0 12.660 15.370 0 1412
r 0.04952 12 15 tcp 40 ------- 0 12.1174 20.1012 0 1435
+ 0.049727 12 15 ack 40 ------- 0 12.673 15.383 12 1476
- 0.049727 12 15 ack 40 ------- 0 12.673 15.383 12 1476
r 0.049833 12 15 ack 40 ------- 0 12.673 15.383 11 1441
+ 0.050959 12 15 ack 40 ------- 0 12.673 15.383 13 1506
- 0.050959 12 15 ack 40 ------- 0 12.673 15.383 13 1506
r 0.051065 12 15 ack 40 ------- 0 12.673 15.383 12 1476
+ 0.052191 12 15 ack 40 ------- 0 12.673 15.383 14 1539
- 0.052191 12 15 ack 40 ------- 0 12.673 15.383 14 1539
r 0.052297 12 15 ack 40 ------- 0 12.673 15.383 13 1506
+ 0.053455 12 15 ack 40 ------- 0 12.673 15.383 15 1578
- 0.053455 12 15 ack 40 ------- 0 12.673 15.383 15 1578
r 0.053529 12 15 ack 40 ------- 0 12.673 15.383 14 1539
+ 0.054687 12 15 ack 40 ------- 0 12.673 15.383 16 1603
- 0.054687 12 15 ack 40 ------- 0 12.673 15.383 16 1603
+ 0.054719 12 15 ack 40 ------- 0 12.406 3.1111 0 1607
- 0.054719 12 15 ack 40 ------- 0 12.406 3.1111 0 1607
r 0.054793 12 15 ack 40 ------- 0 12.673 15.383 15 1578
+ 0.055983 12 15 ack 40 ------- 0 12.673 15.383 17 1640
- 0.055983 12 15 ack 40 ------- 0 12.673 15.383 17 1640
r 0.056025 12 15 ack 40 ------- 0 12.673 15.383 16 1603
r 0.056057 12 15 ack 40 ------- 0 12.406 3.1111 0 1607
+ 0.057215 12 15 ack 40 ------- 0 12.673 15.383 18 1674
- 0.057215 12 15 ack 40 ------- 0 12.673 15.383 18 1674
+ 0.057247 12 15 ack 40 ------- 0 12.732 17.365 0 1676
- 0.057247 12 15 ack 40 ------- 0 12.732 17.365 0 1676
r 0.057321 12 15 ack 40 ------- 0 12.673 15.383 17 1640
r 0.058553 12 15 ack 40 ------- 0 12.673 15.383 18 1674
r 0.058585 12 15 ack 40 ------- 0 12.732 17.365 0 1676
+ 0.058919 12 15 tcp 1540 ------- 0 11.1193 14.880 1 1009
- 0.058919 12 15 tcp 1540 ------- 0 11.1193 14.880 1 1009
+ 0.059743 12 15 ack 40 ------- 0 12.673 15.383 19 1751
- 0.060151 12 15 ack 40 ------- 0 12.673 15.383 19 1751
+ 0.060975 12 15 ack 40 ------- 0 12.673 15.383 20 1781
- 0.060975 12 15 ack 40 ------- 0 12.673 15.383 20 1781
r 0.061456 12 15 tcp 1540 ------- 0 11.1193 14.880 1 1009
r 0.061488 12 15 ack 40 ------- 0 12.673 15.383 19 1751
r 0.062313 12 15 ack 40 ------- 0 12.673 15.383 20 1781
+ 0.065903 12 15 ack 40 ------- 0 12.673 15.383 21 1919
- 0.065903 12 15 ack 40 ------- 0 12.673 15.383 21 1919
+ 0.067135 12 15 ack 40 ------- 0 12.673 15.383 22 1941
- 0.067135 12 15 ack 40 ------- 0 12.673 15.383 22 1941
+ 0.067234 12 15 tcp 40 ------- 0 12.981 17.812 0 1943
- 0.067234 12 15 tcp 40 ------- 0 12.981 17.812 0 1943
r 0.067241 12 15 ack 40 ------- 0 12.673 15.383 21 1919
+ 0.068367 12 15 ack 40 ------- 0 12.660 15.370 1 1984
- 0.068367 12 15 ack 40 ------- 0 12.660 15.370 1 1984
r 0.068473 12 15 ack 40 ------- 0 12.673 15.383 22 1941
r 0.068571 12 15 tcp 40 ------- 0 12.981 17.812 0 1943
+ 0.069599 12 15 ack 40 ------- 0 12.660 15.370 2 2033
- 0.069599 12 15 ack 40 ------- 0 12.660 15.370 2 2033
r 0.069705 12 15 ack 40 ------- 0 12.660 15.370 1 1984
+ 0.070831 12 15 ack 40 ------- 0 12.673 15.383 23 2068
- 0.070831 12 15 ack 40 ------- 0 12.673 15.383 23 2068
r 0.070937 12 15 ack 40 ------- 0 12.660 15.370 2 2033
+ 0.072063 12 15 ack 40 ------- 0 12.673 15.383 24 2125
- 0.072063 12 15 ack 40 ------- 0 12.673 15.383 24 2125
r 0.072169 12 15 ack 40 ------- 0 12.673 15.383 23 2068
+ 0.073359 12 15 ack 40 ------- 0 12.673 15.383 25 2164
- 0.073359 12 15 ack 40 ------- 0 12.673 15.383 25 2164
r 0.073401 12 15 ack 40 ------- 0 12.673 15.383 24 2125
+ 0.07436 12 15 tcp 40 ------- 0 12.25 0.287 0 2195
- 0.07436 12 15 tcp 40 ------- 0 12.25 0.287 0 2195
+ 0.074591 12 15 ack 40 ------- 0 12.673 15.383 26 2203
- 0.074591 12 15 ack 40 ------- 0 12.673 15.383 26 2203
r 0.074697 12 15 ack 40 ------- 0 12.673 15.383 25 2164
r 0.075697 12 15 tcp 40 ------- 0 12.25 0.287 0 2195
+ 0.075855 12 15 ack 40 ------- 0 12.673 15.383 27 2242
- 0.075855 12 15 ack 40 ------- 0 12.673 15.383 27 2242
r 0.075929 12 15 ack 40 ------- 0 12.673 15.383 26 2203
+ 0.077087 12 15 ack 40 ------- 0 12.673 15.383 28 2278
- 0.077087 12 15 ack 40 ------- 0 12.673 15.383 28 2278
r 0.077193 12 15 ack 40 ------- 0 12.673 15.383 27 2242
+ 0.078319 12 15 ack 40 ------- 0 12.673 15.383 29 2329
- 0.078319 12 15 ack 40 ------- 0 12.673 15.383 29 2329
r 0.078425 12 15 ack 40 ------- 0 12.673 15.383 28 2278
+ 0.079551 12 15 ack 40 ------- 0 12.673 15.383 30 2376
- 0.079551 12 15 ack 40 ------- 0 12.673 15.383 30 2376
r 0.079657 12 15 ack 40 ------- 0 12.673 15.383 29 2329
+ 0.080815 12 15 ack 40 ------- 0 12.673 15.383 31 2422
- 0.080815 12 15 ack 40 ------- 0 12.673 15.383 31 2422
r 0.080889 12 15 ack 40 ------- 0 12.673 15.383 30 2376
+ 0.082047 12 15 ack 40 ------- 0 12.673 15.383 32 2459
- 0.082047 12 15 ack 40 ------- 0 12.673 15.383 32 2459
+ 0.082073 12 15 rtProtoDV 26 ------- 0 12.1311 15.1521 -1 2465
- 0.082079 12 15 rtProtoDV 26 ------- 0 12.1311 15.1521 -1 2465
r 0.082153 12 15 ack 40 ------- 0 12.673 15.383 31 2422
+ 0.083279 12 15 ack 40 ------- 0 12.673 15.383 33 2502
- 0.083279 12 15 ack 40 ------- 0 12.673 15.383 33 2502
r 0.083385 12 15 ack 40 ------- 0 12.673 15.383 32 2459
r 0.083405 12 15 rtProtoDV 26 ------- 0 12.1311 15.1521 -1 2465
+ 0.084511 12 15 ack 40 ------- 0 12.673 15.383 34 2536
- 0.084511 12 15 ack 40 ------- 0 12.673 15.383 34 2536
r 0.084617 12 15 ack 40 ------- 0 12.673 15.383 33 2502
+ 0.085764 12 15 ack 40 ------- 0 12.673 15.383 35 2582
- 0.085764 12 15 ack 40 ------- 0 12.673 15.383 35 2582
r 0.085849 12 15 ack 40 ------- 0 12.673 15.383 34 2536
+ 0.086996 12 15 ack 40 ------- 0 12.673 15.383 36 2625
- 0.086996 12 15 ack 40 ------- 0 12.673 15.383 36 2625
r 0.087101 12 15 ack 40 ------- 0 12.673 15.383 35 2582
r 0.088333 12 15 ack 40 ------- 0 12.673 15.383 36 2625
+ 0.088615 12 15 ack 40 ------- 0 11.612 5.1264 0 1438
- 0.088615 12 15 ack 40 ------- 0 11.612 5.1264 0 1438
+ 0.089524 12 15 tcp 1540 ------- 0 12.47 1.563 1 2718
- 0.089524 12 15 tcp 1540 ------- 0 12.47 1.563 1 2718
+ 0.089524 12 15 tcp 1540 ------- 0 12.47 1.563 2 2719
r 0.089952 12 15 ack 40 ------- 0 11.612 5.1264 0 1438
- 0.090756 12 15 tcp 1540 ------- 0 12.47 1.563 2 2719
+ 0.090756 12 15 ack 40 ------- 0 12.673 15.383 37 2763
- 0.091988 12 15 ack 40 ------- 0 12.673 15.383 37 2763
+ 0.091988 12 15 ack 40 ------- 0 12.673 15.383 38 2795
+ 0.09202 12 15 ack 40 ------- 0 12.799 19.354 0 2797
- 0.09202 12 15 ack 40 ------- 0 12.673 15.383 38 2795
- 0.092052 12 15 ack 40 ------- 0 12.799 19.354 0 2797
r 0.092061 12 15 tcp 1540 ------- 0 12.47 1.563 1 2718
+ 0.093014 12 15 tcp 40 ------- 0 12.172 5.642 0 2822
- 0.093014 12 15 tcp 40 ------- 0 12.172 5.642 0 2822
+ 0.093252 12 15 ack 40 ------- 0 12.673 15.383 39 2831
- 0.093252 12 15 ack 40 ------- 0 12.673 15.383 39 2831
r 0.093293 12 15 tcp 1540 ------- 0 12.47 1.563 2 2719
r 0.093325 12 15 ack 40 ------- 0 12.673 15.383 37 2763
r 0.093357 12 15 ack 40 ------- 0 12.673 15.383 38 2795
r 0.093389 12 15 ack 40 ------- 0 12.799 19.354 0 2797
r 0.094351 12 15 tcp 40 ------- 0 12.172 5.642 0 2822
+ 0.094484 12 15 ack 40 ------- 0 12.673 15.383 40 2861
- 0.094484 12 15 ack 40 ------- 0 12.673 15.383 40 2861
r 0.094589 12 15 ack 40 ------- 0 12.673 15.383 39 2831
+ 0.095748 12 15 ack 40 ------- 0 12.673 15.383 41 2896
- 0.095748 12 15 ack 40 ------- 0 12.673 15.383 41 2896
+ 0.09578 12 15 tcp 1540 ------- 0 12.1212 20.1050 1 2897
+ 0.09578 12 15 tcp 1540 ------- 0 12.1212 20.1050 2 2898
- 0.09578 12 15 tcp 1540 ------- 0 12.1212 20.1050 1 2897
r 0.095821 12 15 ack 40 ------- 0 12.673 15.383 40 2861
+ 0.097012 12 15 ack 40 ------- 0 12.673 15.383 42 2940
- 0.097012 12 15 tcp 1540 ------- 0 12.1212 20.1050 2 2898
r 0.097085 12 15 ack 40 ------- 0 12.673 15.383 41 2896
- 0.098244 12 15 ack 40 ------- 0 12.673 15.383 42 2940
r 0.098317 12 15 tcp 1540 ------- 0 12.1212 20.1050 1 2897
+ 0.098599 12 15 tcp 1540 ------- 0 11.169 4.423 1 1709
- 0.098599 12 15 tcp 1540 ------- 0 11.169 4.423 1 1709
r 0.099549 12 15 tcp 1540 ------- 0 12.1212 20.1050 2 2898
r 0.099581 12 15 ack 40 ------- 0 12.673 15.383 42 2940
r 0.101136 12 15 tcp 1540 ------- 0 11.169 4.423 1 1709
+ 0.10194 12 15 ack 40 ------- 0 12.660 15.370 3 3126
- 0.10194 12 15 ack 40 ------- 0 12.660 15.370 3 3126
+ 0.103172 12 15 ack 40 ------- 0 12.660 15.370 4 3164
- 0.103172 12 15 ack 40 ------- 0 12.660 15.370 4 3164
r 0.103277 12 15 ack 40 ------- 0 12.660 15.370 3 3126
+ 0.104436 12 15 ack 40 ------- 0 12.660 15.370 5 3215
- 0.104436 12 15 ack 40 ------- 0 12.660 15.370 5 3215
r 0.104509 12 15 ack 40 ------- 0 12.660 15.370 4 3164
+ 0.105398 12 15 tcp 40 ------- 0 12.978 17.809 0 3241
- 0.105398 12 15 tcp 40 ------- 0 12.978 17.809 0 3241
+ 0.105668 12 15 ack 40 ------- 0 12.660 15.370 6 3259
- 0.105668 12 15 ack 40 ------- 0 12.660 15.370 6 3259
r 0.105773 12 15 ack 40 ------- 0 12.660 15.370 5 3215
r 0.106736 12 15 tcp 40 ------- 0 12.978 17.809 0 3241
+ 0.1069 12 15 ack 40 ------- 0 12.673 15.383 43 3285
- 0.1069 12 15 ack 40 ------- 0 12.673 15.383 43 3285
r 0.107005 12 15 ack 40 ------- 0 12.660 15.370 6 3259
r 0.108237 12 15 ack 40 ------- 0 12.673 15.383 43 3285
+ 0.108583 12 15 ack 40 ------- 0 11.735 14.255 0 2250
- 0.108583 12 15 ack 40 ------- 0 11.735 14.255 0 2250
+ 0.109385 12 15 rtProtoDV 26 ------- 0 12.1311 15.1521 -1 3363
- 0.109385 12 15 rtProtoDV 26 ------- 0 12.1311 15.1521 -1 3363
r 0.10992 12 15 ack 40 ------- 0 11.735 14.255 0 2250
+ 0.110649 12 15 ack 40 ------- 0 12.673 15.383 44 3399
- 0.110649 12 15 ack 40 ------- 0 12.673 15.383 44 3399
r 0.110711 12 15 rtProtoDV 26 ------- 0 12.1311 15.1521 -1 3363
+ 0.110745 12 15 tcp 1540 ------- 0 12.988 17.819 1 3402
- 0.110745 12 15 tcp 1540 ------- 0 12.988 17.819 1 3402
+ 0.110745 12 15 tcp 1540 ------- 0 12.988 17.819 2 3403
- 0.111977 12 15 tcp 1540 ------- 0 12.988 17.819 2 3403
+ 0.111977 12 15 ack 40 ------- 0 12.673 15.383 45 3449
r 0.111986 12 15 ack 40 ------- 0 12.673 15.383 44 3399
+ 0.112009 12 15 ack 40 ------- 0 12.310 1.1299 0 3452
- 0.113209 12 15 ack 40 ------- 0 12.673 15.383 45 3449
- 0.113241 12 15 ack 40 ------- 0 12.310 1.1299 0 3452
+ 0.113241 12 15 ack 40 ------- 0 12.673 15.383 46 3485
+ 0.113273 12 15 ack 40 ------- 0 12.366 1.1355 0 3487
- 0.113273 12 15 ack 40 ------- 0 12.673 15.383 46 3485
r 0.113282 12 15 tcp 1540 ------- 0 12.988 17.819 1 3402
- 0.113305 12 15 ack 40 ------- 0 12.366 1.1355 0 3487
+ 0.114023 12 15 tcp 40 ------- 0 11.1379 20.973 0 2934
- 0.114023 12 15 tcp 40 ------- 0 11.1379 20.973 0 2934
+ 0.114151 12 15 tcp 40 ------- 0 11.1385 20.979 0 2962
- 0.114151 12 15 tcp 40 ------- 0 11.1385 20.979 0 2962
+ 0.114505 12 15 ack 40 ------- 0 12.673 15.383 47 3509
- 0.114505 12 15 ack 40 ------- 0 12.673 15.383 47 3509
r 0.114514 12 15 tcp 1540 ------- 0 12.988 17.819 2 3403
r 0.114546 12 15 ack 40 ------- 0 12.673 15.383 45 3449
r 0.114578 12 15 ack 40 ------- 0 12.310 1.1299 0 3452
r 0.11461 12 15 ack 40 ------- 0 12.673 15.383 46 3485
r 0.114642 12 15 ack 40 ------- 0 12.366 1.1355 0 3487
r 0.11536 12 15 tcp 40 ------- 0 11.1379 20.973 0 2934
r 0.115488 12 15 tcp 40 ------- 0 11.1385 20.979 0 2962
+ 0.115737 12 15 ack 40 ------- 0 12.673 15.383 48 3554
- 0.115737 12 15 ack 40 ------- 0 12.673 15.383 48 3554
r 0.115842 12 15 ack 40 ------- 0 12.673 15.383 47 3509
+ 0.117001 12 15 ack 40 ------- 0 12.673 15.383 49 3583
- 0.117001 12 15 ack 40 ------- 0 12.673 15.383 49 3583
r 0.117074 12 15 ack 40 ------- 0 12.673 15.383 48 3554
+ 0.118265 12 15 ack 40 ------- 0 12.673 15.383 50 3610
- 0.118265 12 15 ack 40 ------- 0 12.673 15.383 50 3610
r 0.118338 12 15 ack 40 ------- 0 12.673 15.383 49 3583
+ 0.119497 12 15 ack 40 ------- 0 12.673 15.383 51 3650
- 0.119497 12 15 ack 40 ------- 0 12.673 15.383 51 3650
r 0.119602 12 15 ack 40 ------- 0 12.673 15.383 50 3610
+ 0.120729 12 15 ack 40 ------- 0 12.673 15.383 52 3691
- 0.120729 12 15 ack 40 ------- 0 12.673 15.383 52 3691
r 0.120834 12 15 ack 40 ------- 0 12.673 15.383 51 3650
r 0.122066 12 15 ack 40 ------- 0 12.673 15.383 52 3691
+ 0.123193 12 15 ack 40 ------- 0 12.673 15.383 53 3772
- 0.123193 12 15 ack 40 ------- 0 12.673 15.383 53 3772
+ 0.124007 12 15 tcp 1540 ------- 0 11.1381 20.975 1 3211
- 0.124007 12 15 tcp 1540 ------- 0 11.1381 20.975 1 3211
+ 0.124391 12 15 tcp 40 ------- 0 11.174 4.428 0 3661
+ 0.124519 12 15 ack 40 ------- 0 11.540 5.1192 0 3666
r 0.12453 12 15 ack 40 ------- 0 12.673 15.383 53 3772
+ 0.124633 12 15 tcp 40 ------- 0 12.59 1.575 0 3824
+ 0.124647 12 15 tcp 40 ------- 0 11.281 5.601 0 3764
- 0.125239 12 15 tcp 40 ------- 0 11.174 4.428 0 3661
- 0.125271 12 15 ack 40 ------- 0 11.540 5.1192 0 3666
- 0.125303 12 15 tcp 40 ------- 0 12.59 1.575 0 3824
- 0.125335 12 15 tcp 40 ------- 0 11.281 5.601 0 3764
+ 0.125657 12 15 ack 40 ------- 0 12.673 15.383 54 3872
- 0.125657 12 15 ack 40 ------- 0 12.673 15.383 54 3872
r 0.126544 12 15 tcp 1540 ------- 0 11.1381 20.975 1 3211
r 0.126576 12 15 tcp 40 ------- 0 11.174 4.428 0 3661
r 0.126608 12 15 ack 40 ------- 0 11.540 5.1192 0 3666
r 0.12664 12 15 tcp 40 ------- 0 12.59 1.575 0 3824
r 0.126672 12 15 tcp 40 ------- 0 11.281 5.601 0 3764
r 0.126994 12 15 ack 40 ------- 0 12.673 15.383 54 3872
+ 0.128121 12 15 ack 40 ------- 0 12.673 15.383 55 3961
- 0.128121 12 15 ack 40 ------- 0 12.673 15.383 55 3961
+ 0.129417 12 15 ack 40 ------- 0 12.329 1.1318 0 3998
- 0.129417 12 15 ack 40 ------- 0 12.329 1.1318 0 3998
r 0.129458 12 15 ack 40 ------- 0 12.673 15.383 55 3961
+ 0.130649 12 15 ack 40 ------- 0 12.673 15.383 56 4027
- 0.130649 12 15 ack 40 ------- 0 12.673 15.383 56 4027
+ 0.13066 12 15 tcp 40 ------- 0 11.1197 14.884 0 4004
+ 0.130681 12 15 ack 40 ------- 0 12.707 17.340 0 4031
- 0.130681 12 15 tcp 40 ------- 0 11.1197 14.884 0 4004
- 0.130713 12 15 ack 40 ------- 0 12.707 17.340 0 4031
+ 0.130745 12 15 ack 40 ------- 0 12.894 22.367 0 4033
- 0.130745 12 15 ack 40 ------- 0 12.894 22.367 0 4033
r 0.130754 12 15 ack 40 ------- 0 12.329 1.1318 0 3998
+ 0.131802 12 15 tcp 40 ------- 0 11.1443 25.339 0 4032
- 0.131802 12 15 tcp 40 ------- 0 11.1443 25.339 0 4032
r 0.131986 12 15 ack 40 ------- 0 12.673 15.383 56 4027
+ 0.132009 12 15 ack 40 ------- 0 12.673 15.383 57 4071
- 0.132009 12 15 ack 40 ------- 0 12.673 15.383 57 4071
r 0.132018 12 15 tcp 40 ------- 0 11.1197 14.884 0 4004
r 0.13205 12 15 ack 40 ------- 0 12.707 17.340 0 4031
r 0.132082 12 15 ack 40 ------- 0 12.894 22.367 0 4033
r 0.133139 12 15 tcp 40 ------- 0 11.1443 25.339 0 4032
+ 0.133241 12 15 ack 40 ------- 0 12.673 15.383 58 4107
- 0.133241 12 15 ack 40 ------- 0 12.673 15.383 58 4107
r 0.133346 12 15 ack 40 ------- 0 12.673 15.383 57 4071
r 0.134578 12 15 ack 40 ------- 0 12.673 15.383 58 4107
+ 0.134618 12 15 tcp 40 ------- 0 12.7 0.269 0 4148
- 0.134618 12 15 tcp 40 ------- 0 12.7 0.269 0 4148
r 0.135956 12 15 tcp 40 ------- 0 12.7 0.269 0 4148
+ 0.136468 12 15 tcp 40 ------- 0 12.999 17.830 0 4212
- 0.136468 12 15 tcp 40 ------- 0 12.999 17.830 0 4212
+ 0.136937 12 15 ack 40 ------- 0 12.673 15.383 59 4220
- 0.136937 12 15 ack 40 ------- 0 12.673 15.383 59 4220
+ 0.137157 12 15 tcp 40 ------- 0 12.76 3.362 0 4229
- 0.137157 12 15 tcp 40 ------- 0 12.76 3.362 0 4229
r 0.137805 12 15 tcp 40 ------- 0 12.999 17.830 0 4212
+ 0.138169 12 15 ack 40 ------- 0 12.673 15.383 60 4254
- 0.138169 12 15 ack 40 ------- 0 12.673 15.383 60 4254
r 0.138274 12 15 ack 40 ------- 0 12.673 15.383 59 4220
r 0.138495 12 15 tcp 40 ------- 0 12.76 3.362 0 4229
+ 0.139401 12 15 ack 40 ------- 0 12.673 15.383 61 4296
- 0.139401 12 15 ack 40 ------- 0 12.673 15.383 61 4296
r 0.139506 12 15 ack 40 ------- 0 12.673 15.383 60 4254
+ 0.140665 12 15 ack 40 ------- 0 12.673 15.383 62 4339
- 0.140665 12 15 ack 40 ------- 0 12.673 15.383 62 4339
r 0.140738 12 15 ack 40 ------- 0 12.673 15.383 61 4296
+ 0.141897 12 15 ack 40 ------- 0 12.732 17.365 1 4379
- 0.141897 12 15 ack 40 ------- 0 12.732 17.365 1 4379
r 0.142002 12 15 ack 40 ------- 0 12.673 15.383 62 4339
+ 0.142007 12 15 tcp 40 ------- 0 11.1478 25.374 0 4346
- 0.142007 12 15 tcp 40 ------- 0 11.1478 25.374 0 4346
+ 0.142577 12 15 tcp 40 ------- 0 12.193 5.663 0 4399
- 0.142577 12 15 tcp 40 ------- 0 12.193 5.663 0 4399
+ 0.143129 12 15 ack 40 ------- 0 12.660 15.370 7 4414
- 0.143129 12 15 ack 40 ------- 0 12.660 15.370 7 4414
r 0.143234 12 15 ack 40 ------- 0 12.732 17.365 1 4379
r 0.143344 12 15 tcp 40 ------- 0 11.1478 25.374 0 4346
+ 0.143649 12 15 tcp 40 ------- 0 11.170 4.424 0 4396
- 0.143649 12 15 tcp 40 ------- 0 11.170 4.424 0 4396
+ 0.143777 12 15 tcp 40 ------- 0 11.305 5.625 0 4402
- 0.143777 12 15 tcp 40 ------- 0 11.305 5.625 0 4402
r 0.143915 12 15 tcp 40 ------- 0 12.193 5.663 0 4399
+ 0.144361 12 15 ack 40 ------- 0 12.660 15.370 8 4456
- 0.144361 12 15 ack 40 ------- 0 12.660 15.370 8 4456
r 0.144466 12 15 ack 40 ------- 0 12.660 15.370 7 4414
+ 0.144876 12 15 tcp 40 ------- 0 12.1168 20.1006 0 4481
- 0.144876 12 15 tcp 40 ------- 0 12.1168 20.1006 0 4481
r 0.144986 12 15 tcp 40 ------- 0 11.170 4.424 0 4396
r 0.145114 12 15 tcp 40 ------- 0 11.305 5.625 0 4402
+ 0.145397 12 15 tcp 40 ------- 0 12.1303 25.390 0 4497
- 0.145397 12 15 tcp 40 ------- 0 12.1303 25.390 0 4497
+ 0.145593 12 15 ack 40 ------- 0 12.660 15.370 9 4502
- 0.145593 12 15 ack 40 ------- 0 12.660 15.370 9 4502
r 0.145698 12 15 ack 40 ------- 0 12.660 15.370 8 4456
r 0.146213 12 15 tcp 40 ------- 0 12.1168 20.1006 0 4481
r 0.146734 12 15 tcp 40 ------- 0 12.1303 25.390 0 4497
+ 0.146825 12 15 ack 40 ------- 0 12.660 15.370 10 4557
- 0.146825 12 15 ack 40 ------- 0 12.660 15.370 10 4557
r 0.14693 12 15 ack 40 ------- 0 12.660 15.370 9 4502
+ 0.148057 12 15 ack 40 ------- 0 12.732 17.365 2 4605
- 0.148057 12 15 ack 40 ------- 0 12.732 17.365 2 4605
+ 0.148089 12 15 ack 40 ------- 0 12.684 17.317 0 4606
- 0.148089 12 15 ack 40 ------- 0 12.684 17.317 0 4606
r 0.148162 12 15 ack 40 ------- 0 12.660 15.370 10 4557
+ 0.149321 12 15 ack 40 ------- 0 12.660 15.370 10 4647
- 0.149321 12 15 ack 40 ------- 0 12.660 15.370 10 4647
r 0.149394 12 15 ack 40 ------- 0 12.732 17.365 2 4605
r 0.149426 12 15 ack 40 ------- 0 12.684 17.317 0 4606
+ 0.150553 12 15 ack 40 ------- 0 12.673 15.383 63 4704
- 0.150553 12 15 ack 40 ------- 0 12.673 15.383 63 4704
r 0.150658 12 15 ack 40 ------- 0 12.660 15.370 10 4647
+ 0.151863 12 15 tcp 40 ------- 0 11.1374 20.968 0 4522
- 0.151863 12 15 tcp 40 ------- 0 11.1374 20.968 0 4522
r 0.15189 12 15 ack 40 ------- 0 12.673 15.383 63 4704
+ 0.151991 12 15 ack 40 ------- 0 11.735 14.255 1 4671
- 0.151991 12 15 ack 40 ------- 0 11.735 14.255 1 4671
+ 0.152119 12 15 ack 40 ------- 0 11.600 5.1252 0 4678
- 0.152119 12 15 ack 40 ------- 0 11.600 5.1252 0 4678
+ 0.153049 12 15 ack 40 ------- 0 12.673 15.383 64 4763
- 0.153049 12 15 ack 40 ------- 0 12.673 15.383 64 4763
r 0.1532 12 15 tcp 40 ------- 0 11.1374 20.968 0 4522
r 0.153328 12 15 ack 40 ------- 0 11.735 14.255 1 4671
r 0.153456 12 15 ack 40 ------- 0 11.600 5.1252 0 4678
+ 0.154212 12 15 tcp 40 ------- 0 12.1145 19.1018 0 4800
- 0.154212 12 15 tcp 40 ------- 0 12.1145 19.1018 0 4800
r 0.154386 12 15 ack 40 ------- 0 12.673 15.383 64 4763
+ 0.155545 12 15 ack 40 ------- 0 12.673 15.383 65 4866
- 0.155545 12 15 ack 40 ------- 0 12.673 15.383 65 4866
r 0.155549 12 15 tcp 40 ------- 0 12.1145 19.1018 0 4800
+ 0.156777 12 15 ack 40 ------- 0 12.673 15.383 66 4904
- 0.156777 12 15 ack 40 ------- 0 12.673 15.383 66 4904
r 0.156882 12 15 ack 40 ------- 0 12.673 15.383 65 4866
+ 0.158041 12 15 tcp 1540 ------- 0 12.172 5.642 1 4940
- 0.158041 12 15 tcp 1540 ------- 0 12.172 5.642 1 4940
+ 0.158041 12 15 tcp 1540 ------- 0 12.172 5.642 2 4941
r 0.158114 12 15 ack 40 ------- 0 12.673 15.383 66 4904
+ 0.158955 12 15 tcp 40 ------- 0 12.31 0.293 0 4966
+ 0.159273 12 15 ack 40 ------- 0 12.673 15.383 67 4973
- 0.159273 12 15 tcp 1540 ------- 0 12.172 5.642 2 4941
+ 0.159305 12 15 tcp 1540 ------- 0 12.1177 20.1015 1 4976
+ 0.159305 12 15 tcp 1540 ------- 0 12.1177 20.1015 2 4977
- 0.160505 12 15 tcp 40 ------- 0 12.31 0.293 0 4966
+ 0.160537 12 15 ack 40 ------- 0 12.673 15.383 68 5026
- 0.160537 12 15 ack 40 ------- 0 12.673 15.383 67 4973
- 0.160569 12 15 tcp 1540 ------- 0 12.1177 20.1015 1 4976
r 0.160578 12 15 tcp 1540 ------- 0 12.172 5.642 1 4940
+ 0.161769 12 15 ack 40 ------- 0 12.673 15.383 69 5091
- 0.161801 12 15 tcp 1540 ------- 0 12.1177 20.1015 2 4977
r 0.16181 12 15 tcp 1540 ------- 0 12.172 5.642 2 4941
r 0.161842 12 15 tcp 40 ------- 0 12.31 0.293 0 4966
r 0.161874 12 15 ack 40 ------- 0 12.673 15.383 67 4973
+ 0.163033 12 15 ack 40 ------- 0 12.673 15.383 70 5132
- 0.163033 12 15 ack 40 ------- 0 12.673 15.383 68 5026
- 0.163065 12 15 ack 40 ------- 0 12.673 15.383 69 5091
- 0.163097 12 15 ack 40 ------- 0 12.673 15.383 70 5132
r 0.163106 12 15 tcp 1540 ------- 0 12.1177 20.1015 1 4976
+ 0.164265 12 15 ack 40 ------- 0 12.673 15.383 71 5186
- 0.164265 12 15 ack 40 ------- 0 12.673 15.383 71 5186
r 0.164338 12 15 tcp 1540 ------- 0 12.1177 20.1015 2 4977
r 0.16437 12 15 ack 40 ------- 0 12.673 15.383 68 5026
r 0.164402 12 15 ack 40 ------- 0 12.673 15.383 69 5091
r 0.164434 12 15 ack 40 ------- 0 12.673 15.383 70 5132
+ 0.165497 12 15 ack 40 ------- 0 12.673 15.383 72 5238
- 0.165497 12 15 ack 40 ------- 0 12.673 15.383 72 5238
+ 0.165529 12 15 tcp 1540 ------- 0 12.25 0.287 1 5239
+ 0.165529 12 15 tcp 1540 ------- 0 12.25 0.287 2 5240
- 0.165529 12 15 tcp 1540 ------- 0 12.25 0.287 1 5239
r 0.165602 12 15 ack 40 ------- 0 12.673 15.383 71 5186
+ 0.166761 12 15 ack 40 ------- 0 12.673 15.383 73 5287
- 0.166761 12 15 tcp 1540 ------- 0 12.25 0.287 2 5240
r 0.166834 12 15 ack 40 ------- 0 12.673 15.383 72 5238
+ 0.166857 12 15 tcp 1540 ------- 0 12.1174 20.1012 1 5291
+ 0.166857 12 15 tcp 1540 ------- 0 12.1174 20.1012 2 5292
+ 0.167287 12 15 tcp 40 ------- 0 11.1376 20.970 0 5179
+ 0.167415 12 15 ack 40 ------- 0 11.735 14.255 2 5207
- 0.167993 12 15 ack 40 ------- 0 12.673 15.383 73 5287
- 0.168025 12 15 tcp 1540 ------- 0 12.1174 20.1012 1 5291
r 0.168066 12 15 tcp 1540 ------- 0 12.25 0.287 1 5239
+ 0.168153 12 15 ack 40 ------- 0 12.673 15.383 73 5340
+ 0.169227 12 15 tcp 40 ------- 0 12.1264 22.898 0 5382
- 0.169257 12 15 tcp 1540 ------- 0 12.1174 20.1012 2 5292
r 0.169298 12 15 tcp 1540 ------- 0 12.25 0.287 2 5240
r 0.16933 12 15 ack 40 ------- 0 12.673 15.383 73 5287
+ 0.169417 12 15 ack 40 ------- 0 12.673 15.383 73 5390
- 0.170489 12 15 tcp 40 ------- 0 11.1376 20.970 0 5179
- 0.170521 12 15 ack 40 ------- 0 11.735 14.255 2 5207
- 0.170553 12 15 ack 40 ------- 0 12.673 15.383 73 5340
r 0.170562 12 15 tcp 1540 ------- 0 12.1174 20.1012 1 5291
- 0.170585 12 15 tcp 40 ------- 0 12.1264 22.898 0 5382
- 0.170617 12 15 ack 40 ------- 0 12.673 15.383 73 5390
+ 0.170681 12 15 ack 40 ------- 0 12.673 15.383 73 5442
- 0.170681 12 15 ack 40 ------- 0 12.673 15.383 73 5442
r 0.171794 12 15 tcp 1540 ------- 0 12.1174 20.1012 2 5292
r 0.171826 12 15 tcp 40 ------- 0 11.1376 20.970 0 5179
r 0.171858 12 15 ack 40 ------- 0 11.735 14.255 2 5207
r 0.17189 12 15 ack 40 ------- 0 12.673 15.383 73 5340
r 0.171922 12 15 tcp 40 ------- 0 12.1264 22.898 0 5382
+ 0.171945 12 15 ack 40 ------- 0 12.673 15.383 73 5521
- 0.171945 12 15 ack 40 ------- 0 12.673 15.383 73 5521
r 0.171954 12 15 ack 40 ------- 0 12.673 15.383 73 5390
r 0.172018 12 15 ack 40 ------- 0 12.673 15.383 73 5442
+ 0.172471 12 15 tcp 40 ------- 0 11.1477 25.373 0 5259
- 0.172471 12 15 tcp 40 ------- 0 11.1477 25.373 0 5259
+ 0.172599 12 15 tcp 40 ------- 0 11.1465 25.361 0 5339
- 0.172599 12 15 tcp 40 ------- 0 11.1465 25.361 0 5339
+ 0.173177 12 15 ack 40 ------- 0 12.673 15.383 73 5583
- 0.173177 12 15 ack 40 ------- 0 12.673 15.383 73 5583
r 0.173282 12 15 ack 40 ------- 0 12.673 15.383 73 5521
r 0.173808 12 15 tcp 40 ------- 0 11.1477 25.373 0 5259
r 0.173936 12 15 tcp 40 ------- 0 11.1465 25.361 0 5339
+ 0.174409 12 15 ack 40 ------- 0 12.673 15.383 73 5624
- 0.174409 12 15 ack 40 ------- 0 12.673 15.383 73 5624
r 0.174514 12 15 ack 40 ------- 0 12.673 15.383 73 5583
+ 0.175673 12 15 ack 40 ------- 0 12.673 15.383 73 5669
- 0.175673 12 15 ack 40 ------- 0 12.673 15.383 73 5669
r 0.175746 12 15 ack 40 ------- 0 12.673 15.383 73 5624
r 0.17701 12 15 ack 40 ------- 0 12.673 15.383 73 5669
+ 0.180399 12 15 tcp 40 ------- 0 12.110 3.396 0 5827
- 0.180399 12 15 tcp 40 ------- 0 12.110 3.396 0 5827
+ 0.180601 12 15 ack 40 ------- 0 12.673 15.383 73 5829
- 0.180601 12 15 ack 40 ------- 0 12.673 15.383 73 5829
+ 0.181171 12 15 tcp 40 ------- 0 12.926 15.941 0 5849
- 0.181171 12 15 tcp 40 ------- 0 12.926 15.941 0 5849
r 0.181736 12 15 tcp 40 ------- 0 12.110 3.396 0 5827
r 0.181938 12 15 ack 40 ------- 0 12.673 15.383 73 5829
r 0.182508 12 15 tcp 40 ------- 0 12.926 15.941 0 5849
+ 0.182609 12 15 tcp 40 ------- 0 12.50 1.566 0 5892
- 0.182609 12 15 tcp 40 ------- 0 12.50 1.566 0 5892
+ 0.183065 12 15 ack 40 ------- 0 12.660 15.370 10 5905
- 0.183065 12 15 ack 40 ------- 0 12.660 15.370 10 5905
r 0.183946 12 15 tcp 40 ------- 0 12.50 1.566 0 5892
+ 0.184297 12 15 ack 40 ------- 0 12.660 15.370 10 5944
- 0.184297 12 15 ack 40 ------- 0 12.660 15.370 10 5944
r 0.184402 12 15 ack 40 ------- 0 12.660 15.370 10 5905
+ 0.185561 12 15 ack 40 ------- 0 12.660 15.370 10 5994
- 0.185561 12 15 ack 40 ------- 0 12.660 15.370 10 5994
r 0.185634 12 15 ack 40 ------- 0 12.660 15.370 10 5944