+ 0.006097 25 15 ack 40 ------- 0 25.482 15.1504 0 131
- 0.006097 25 15 ack 40 ------- 0 25.482 15.1504 0 131
+ 0.00729 25 15 rtProtoDV 26 ------- 0 25.773 15.1521 -1 170
- 0.00729 25 15 rtProtoDV 26 ------- 0 25.773 15.1521 -1 170
r 0.009708 25 15 ack 40 ------- 0 25.482 15.1504 0 131
+ 0.010617 25 15 rtProtoDV 26 ------- 0 25.773 15.1521 -1 330
- 0.010617 25 15 rtProtoDV 26 ------- 0 25.773 15.1521 -1 330
r 0.01089 25 15 rtProtoDV 26 ------- 0 25.773 15.1521 -1 170
+ 0.011082 25 15 rtProtoDV 26 ------- 0 25.773 15.1521 -1 370
- 0.011082 25 15 rtProtoDV 26 ------- 0 25.773 15.1521 -1 370
+ 0.011449 25 15 rtProtoDV 26 ------- 0 25.773 15.1521 -1 391
- 0.011449 25 15 rtProtoDV 26 ------- 0 25.773 15.1521 -1 391
+ 0.013061 25 15 rtProtoDV 26 ------- 0 25.773 15.1521 -1 475
- 0.013061 25 15 rtProtoDV 26 ------- 0 25.773 15.1521 -1 475
r 0.014217 25 15 rtProtoDV 26 ------- 0 25.773 15.1521 -1 330
+ 0.01452 25 15 ack 40 ------- 0 25.482 15.1504 1 539
- 0.01452 25 15 ack 40 ------- 0 25.482 15.1504 1 539
r 0.014682 25 15 rtProtoDV 26 ------- 0 25.773 15.1521 -1 370
r 0.015049 25 15 rtProtoDV 26 ------- 0 25.773 15.1521 -1 391
+ 0.015752 25 15 ack 40 ------- 0 25.482 15.1504 2 578
- 0.015752 25 15 ack 40 ------- 0 25.482 15.1504 2 578
+ 0.015773 25 15 rtProtoDV 26 ------- 0 25.773 15.1521 -1 582
- 0.015784 25 15 rtProtoDV 26 ------- 0 25.773 15.1521 -1 582
r 0.016661 25 15 rtProtoDV 26 ------- 0 25.773 15.1521 -1 475
+ 0.016763 25 15 rtProtoDV 26 ------- 0 25.773 15.1521 -1 628
- 0.016763 25 15 rtProtoDV 26 ------- 0 25.773 15.1521 -1 628
+ 0.017916 25 15 rtProtoDV 26 ------- 0 25.773 15.1521 -1 675
- 0.017916 25 15 rtProtoDV 26 ------- 0 25.773 15.1521 -1 675
r 0.018131 25 15 ack 40 ------- 0 25.482 15.1504 1 539
+ 0.019255 25 15 rtProtoDV 26 ------- 0 25.773 15.1521 -1 724
- 0.019255 25 15 rtProtoDV 26 ------- 0 25.773 15.1521 -1 724
r 0.019363 25 15 ack 40 ------- 0 25.482 15.1504 2 578
r 0.019384 25 15 rtProtoDV 26 ------- 0 25.773 15.1521 -1 582
r 0.020363 25 15 rtProtoDV 26 ------- 0 25.773 15.1521 -1 628
r 0.021516 25 15 rtProtoDV 26 ------- 0 25.773 15.1521 -1 675
r 0.022855 25 15 rtProtoDV 26 ------- 0 25.773 15.1521 -1 724
+ 0.022942 25 15 ack 40 ------- 0 25.482 15.1504 3 826
- 0.022942 25 15 ack 40 ------- 0 25.482 15.1504 3 826
+ 0.024174 25 15 ack 40 ------- 0 25.482 15.1504 4 865
- 0.024174 25 15 ack 40 ------- 0 25.482 15.1504 4 865
+ 0.024206 25 15 ack 40 ------- 0 25.465 15.1487 0 866
- 0.024206 25 15 ack 40 ------- 0 25.465 15.1487 0 866
+ 0.025438 25 15 ack 40 ------- 0 25.482 15.1504 5 883
- 0.025438 25 15 ack 40 ------- 0 25.482 15.1504 5 883
r 0.026554 25 15 ack 40 ------- 0 25.482 15.1504 3 826
+ 0.02667 25 15 ack 40 ------- 0 25.482 15.1504 6 911
- 0.02667 25 15 ack 40 ------- 0 25.482 15.1504 6 911
r 0.027786 25 15 ack 40 ------- 0 25.482 15.1504 4 865
r 0.027818 25 15 ack 40 ------- 0 25.465 15.1487 0 866
r 0.02905 25 15 ack 40 ------- 0 25.482 15.1504 5 883
+ 0.030173 25 15 tcp 40 ------- 0 6.1157 14.717 0 835
- 0.030173 25 15 tcp 40 ------- 0 6.1157 14.717 0 835
r 0.030282 25 15 ack 40 ------- 0 25.482 15.1504 6 911
+ 0.031365 25 15 ack 40 ------- 0 25.482 15.1504 7 1029
- 0.031365 25 15 ack 40 ------- 0 25.482 15.1504 7 1029
+ 0.032597 25 15 ack 40 ------- 0 25.482 15.1504 8 1059
- 0.032597 25 15 ack 40 ------- 0 25.482 15.1504 8 1059
+ 0.032877 25 15 ack 40 ------- 0 6.705 15.310 0 887
- 0.032877 25 15 ack 40 ------- 0 6.705 15.310 0 887
r 0.033785 25 15 tcp 40 ------- 0 6.1157 14.717 0 835
+ 0.033829 25 15 ack 40 ------- 0 25.482 15.1504 9 1081
- 0.033829 25 15 ack 40 ------- 0 25.482 15.1504 9 1081
r 0.034976 25 15 ack 40 ------- 0 25.482 15.1504 7 1029
+ 0.035061 25 15 ack 40 ------- 0 25.482 15.1504 10 1108
- 0.035061 25 15 ack 40 ------- 0 25.482 15.1504 10 1108
r 0.036208 25 15 ack 40 ------- 0 25.482 15.1504 8 1059
+ 0.036293 25 15 ack 40 ------- 0 25.465 15.1487 1 1142
- 0.036293 25 15 ack 40 ------- 0 25.465 15.1487 1 1142
r 0.036489 25 15 ack 40 ------- 0 6.705 15.310 0 887
r 0.03744 25 15 ack 40 ------- 0 25.482 15.1504 9 1081
+ 0.037525 25 15 ack 40 ------- 0 25.465 15.1487 2 1170
- 0.037525 25 15 ack 40 ------- 0 25.465 15.1487 2 1170
r 0.038672 25 15 ack 40 ------- 0 25.482 15.1504 10 1108
+ 0.038757 25 15 ack 40 ------- 0 25.482 15.1504 11 1194
- 0.038757 25 15 ack 40 ------- 0 25.482 15.1504 11 1194
r 0.039904 25 15 ack 40 ------- 0 25.465 15.1487 1 1142
+ 0.039989 25 15 ack 40 ------- 0 25.482 15.1504 12 1234
- 0.039989 25 15 ack 40 ------- 0 25.482 15.1504 12 1234
r 0.041136 25 15 ack 40 ------- 0 25.465 15.1487 2 1170
+ 0.041221 25 15 ack 40 ------- 0 25.482 15.1504 13 1263
- 0.041221 25 15 ack 40 ------- 0 25.482 15.1504 13 1263
r 0.042368 25 15 ack 40 ------- 0 25.482 15.1504 11 1194
+ 0.042453 25 15 ack 40 ------- 0 25.482 15.1504 14 1293
- 0.042453 25 15 ack 40 ------- 0 25.482 15.1504 14 1293
+ 0.042995 25 15 rtProtoDV 26 ------- 0 25.773 15.1521 -1 1309
- 0.042995 25 15 rtProtoDV 26 ------- 0 25.773 15.1521 -1 1309
r 0.0436 25 15 ack 40 ------- 0 25.482 15.1504 12 1234
+ 0.043717 25 15 ack 40 ------- 0 25.482 15.1504 15 1324
- 0.043717 25 15 ack 40 ------- 0 25.482 15.1504 15 1324
r 0.044832 25 15 ack 40 ------- 0 25.482 15.1504 13 1263
+ 0.044949 25 15 ack 40 ------- 0 25.482 15.1504 16 1362
- 0.044949 25 15 ack 40 ------- 0 25.482 15.1504 16 1362
r 0.046064 25 15 ack 40 ------- 0 25.482 15.1504 14 1293
+ 0.046076 25 15 tcp 40 ------- 0 20.551 14.1119 0 1114
- 0.046076 25 15 tcp 40 ------- 0 20.551 14.1119 0 1114
+ 0.046213 25 15 ack 40 ------- 0 25.482 15.1504 17 1389
- 0.046213 25 15 ack 40 ------- 0 25.482 15.1504 17 1389
r 0.046595 25 15 rtProtoDV 26 ------- 0 25.773 15.1521 -1 1309
r 0.047328 25 15 ack 40 ------- 0 25.482 15.1504 15 1324
+ 0.047445 25 15 ack 40 ------- 0 25.482 15.1504 18 1419
- 0.047445 25 15 ack 40 ------- 0 25.482 15.1504 18 1419
+ 0.048202 25 15 tcp 40 ------- 0 6.1156 14.716 0 1254
- 0.048202 25 15 tcp 40 ------- 0 6.1156 14.716 0 1254
r 0.04856 25 15 ack 40 ------- 0 25.482 15.1504 16 1362
+ 0.049536 25 15 tcp 40 ------- 0 20.549 14.1117 0 1191
- 0.049536 25 15 tcp 40 ------- 0 20.549 14.1117 0 1191
r 0.049688 25 15 tcp 40 ------- 0 20.551 14.1119 0 1114
r 0.049824 25 15 ack 40 ------- 0 25.482 15.1504 17 1389
r 0.051056 25 15 ack 40 ------- 0 25.482 15.1504 18 1419
+ 0.051141 25 15 ack 40 ------- 0 25.482 15.1504 19 1515
- 0.051141 25 15 ack 40 ------- 0 25.482 15.1504 19 1515
r 0.051813 25 15 tcp 40 ------- 0 6.1156 14.716 0 1254
+ 0.052373 25 15 ack 40 ------- 0 25.482 15.1504 20 1548
- 0.052373 25 15 ack 40 ------- 0 25.482 15.1504 20 1548
r 0.053148 25 15 tcp 40 ------- 0 20.549 14.1117 0 1191
+ 0.053605 25 15 ack 40 ------- 0 25.482 15.1504 21 1583
- 0.053605 25 15 ack 40 ------- 0 25.482 15.1504 21 1583
r 0.054752 25 15 ack 40 ------- 0 25.482 15.1504 19 1515
+ 0.054837 25 15 ack 40 ------- 0 25.482 15.1504 22 1617
- 0.054837 25 15 ack 40 ------- 0 25.482 15.1504 22 1617
r 0.055984 25 15 ack 40 ------- 0 25.482 15.1504 20 1548
+ 0.056069 25 15 ack 40 ------- 0 25.465 15.1487 3 1647
- 0.056069 25 15 ack 40 ------- 0 25.465 15.1487 3 1647
r 0.057216 25 15 ack 40 ------- 0 25.482 15.1504 21 1583
+ 0.057301 25 15 ack 40 ------- 0 25.465 15.1487 4 1677
- 0.057301 25 15 ack 40 ------- 0 25.465 15.1487 4 1677
r 0.058448 25 15 ack 40 ------- 0 25.482 15.1504 22 1617
+ 0.058533 25 15 ack 40 ------- 0 25.465 15.1487 5 1719
- 0.058533 25 15 ack 40 ------- 0 25.465 15.1487 5 1719
r 0.05968 25 15 ack 40 ------- 0 25.465 15.1487 3 1647
+ 0.059765 25 15 ack 40 ------- 0 25.465 15.1487 6 1752
- 0.059765 25 15 ack 40 ------- 0 25.465 15.1487 6 1752
r 0.060912 25 15 ack 40 ------- 0 25.465 15.1487 4 1677
+ 0.060997 25 15 ack 40 ------- 0 25.482 15.1504 23 1782
- 0.060997 25 15 ack 40 ------- 0 25.482 15.1504 23 1782
+ 0.061621 25 15 tcp 40 ------- 0 6.1236 15.911 0 1535
- 0.061621 25 15 tcp 40 ------- 0 6.1236 15.911 0 1535
r 0.062144 25 15 ack 40 ------- 0 25.465 15.1487 5 1719
+ 0.062229 25 15 ack 40 ------- 0 25.482 15.1504 24 1819
- 0.062229 25 15 ack 40 ------- 0 25.482 15.1504 24 1819
r 0.063376 25 15 ack 40 ------- 0 25.465 15.1487 6 1752
+ 0.063461 25 15 ack 40 ------- 0 25.482 15.1504 25 1854
- 0.063461 25 15 ack 40 ------- 0 25.482 15.1504 25 1854
+ 0.064149 25 15 tcp 40 ------- 0 6.1207 15.882 0 1632
- 0.064149 25 15 tcp 40 ------- 0 6.1207 15.882 0 1632
+ 0.064181 25 15 ack 40 ------- 0 6.705 15.310 1 1666
- 0.064181 25 15 ack 40 ------- 0 6.705 15.310 1 1666
+ 0.064223 25 15 ack 40 ------- 0 20.1050 12.1212 0 1571
- 0.064223 25 15 ack 40 ------- 0 20.1050 12.1212 0 1571
r 0.064608 25 15 ack 40 ------- 0 25.482 15.1504 23 1782
+ 0.064693 25 15 ack 40 ------- 0 25.482 15.1504 26 1885
- 0.064693 25 15 ack 40 ------- 0 25.482 15.1504 26 1885
r 0.065233 25 15 tcp 40 ------- 0 6.1236 15.911 0 1535
+ 0.065383 25 15 ack 40 ------- 0 6.705 15.310 2 1705
- 0.065383 25 15 ack 40 ------- 0 6.705 15.310 2 1705
r 0.06584 25 15 ack 40 ------- 0 25.482 15.1504 24 1819
+ 0.065925 25 15 ack 40 ------- 0 25.482 15.1504 27 1920
- 0.065925 25 15 ack 40 ------- 0 25.482 15.1504 27 1920
+ 0.066719 25 15 ack 40 ------- 0 20.975 11.1381 0 1635
- 0.066719 25 15 ack 40 ------- 0 20.975 11.1381 0 1635
r 0.067072 25 15 ack 40 ------- 0 25.482 15.1504 25 1854
+ 0.067157 25 15 ack 40 ------- 0 25.482 15.1504 28 1942
- 0.067157 25 15 ack 40 ------- 0 25.482 15.1504 28 1942
r 0.067761 25 15 tcp 40 ------- 0 6.1207 15.882 0 1632
r 0.067793 25 15 ack 40 ------- 0 6.705 15.310 1 1666
r 0.067834 25 15 ack 40 ------- 0 20.1050 12.1212 0 1571
r 0.068304 25 15 ack 40 ------- 0 25.482 15.1504 26 1885
+ 0.068421 25 15 ack 40 ------- 0 25.482 15.1504 29 1988
- 0.068421 25 15 ack 40 ------- 0 25.482 15.1504 29 1988
r 0.068994 25 15 ack 40 ------- 0 6.705 15.310 2 1705
r 0.069536 25 15 ack 40 ------- 0 25.482 15.1504 27 1920
+ 0.069653 25 15 ack 40 ------- 0 25.482 15.1504 30 2035
- 0.069653 25 15 ack 40 ------- 0 25.482 15.1504 30 2035
r 0.07033 25 15 ack 40 ------- 0 20.975 11.1381 0 1635
+ 0.070437 25 15 tcp 40 ------- 0 6.1077 13.673 0 1846
- 0.070437 25 15 tcp 40 ------- 0 6.1077 13.673 0 1846
r 0.070768 25 15 ack 40 ------- 0 25.482 15.1504 28 1942
+ 0.070917 25 15 ack 40 ------- 0 25.482 15.1504 31 2072
- 0.070917 25 15 ack 40 ------- 0 25.482 15.1504 31 2072
r 0.072032 25 15 ack 40 ------- 0 25.482 15.1504 29 1988
+ 0.072149 25 15 ack 40 ------- 0 25.482 15.1504 32 2127
- 0.072149 25 15 ack 40 ------- 0 25.482 15.1504 32 2127
r 0.073264 25 15 ack 40 ------- 0 25.482 15.1504 30 2035
+ 0.073413 25 15 ack 40 ------- 0 25.482 15.1504 33 2168
- 0.073413 25 15 ack 40 ------- 0 25.482 15.1504 33 2168
r 0.074048 25 15 tcp 40 ------- 0 6.1077 13.673 0 1846
r 0.074528 25 15 ack 40 ------- 0 25.482 15.1504 31 2072
+ 0.074645 25 15 ack 40 ------- 0 25.482 15.1504 34 2206
- 0.074645 25 15 ack 40 ------- 0 25.482 15.1504 34 2206
r 0.07576 25 15 ack 40 ------- 0 25.482 15.1504 32 2127
+ 0.075909 25 15 ack 40 ------- 0 25.482 15.1504 35 2246
- 0.075909 25 15 ack 40 ------- 0 25.482 15.1504 35 2246
r 0.077024 25 15 ack 40 ------- 0 25.482 15.1504 33 2168
+ 0.077141 25 15 ack 40 ------- 0 25.482 15.1504 36 2282
- 0.077141 25 15 ack 40 ------- 0 25.482 15.1504 36 2282
r 0.078256 25 15 ack 40 ------- 0 25.482 15.1504 34 2206
+ 0.078373 25 15 ack 40 ------- 0 25.482 15.1504 37 2332
- 0.078373 25 15 ack 40 ------- 0 25.482 15.1504 37 2332
r 0.07952 25 15 ack 40 ------- 0 25.482 15.1504 35 2246
+ 0.079605 25 15 ack 40 ------- 0 25.482 15.1504 38 2380
- 0.079605 25 15 ack 40 ------- 0 25.482 15.1504 38 2380
r 0.080752 25 15 ack 40 ------- 0 25.482 15.1504 36 2282
+ 0.080837 25 15 ack 40 ------- 0 25.482 15.1504 39 2425
- 0.080837 25 15 ack 40 ------- 0 25.482 15.1504 39 2425
r 0.081984 25 15 ack 40 ------- 0 25.482 15.1504 37 2332
+ 0.082069 25 15 ack 40 ------- 0 25.482 15.1504 40 2462
- 0.082069 25 15 ack 40 ------- 0 25.482 15.1504 40 2462
r 0.083216 25 15 ack 40 ------- 0 25.482 15.1504 38 2380
+ 0.083322 25 15 ack 40 ------- 0 25.482 15.1504 41 2505
- 0.083322 25 15 ack 40 ------- 0 25.482 15.1504 41 2505
r 0.084448 25 15 ack 40 ------- 0 25.482 15.1504 39 2425
+ 0.084586 25 15 ack 40 ------- 0 25.482 15.1504 42 2542
- 0.084586 25 15 ack 40 ------- 0 25.482 15.1504 42 2542
r 0.08568 25 15 ack 40 ------- 0 25.482 15.1504 40 2462
+ 0.085818 25 15 ack 40 ------- 0 25.465 15.1487 7 2588
- 0.085818 25 15 ack 40 ------- 0 25.465 15.1487 7 2588
r 0.086933 25 15 ack 40 ------- 0 25.482 15.1504 41 2505
+ 0.08705 25 15 ack 40 ------- 0 25.465 15.1487 8 2629
- 0.08705 25 15 ack 40 ------- 0 25.465 15.1487 8 2629
r 0.088197 25 15 ack 40 ------- 0 25.482 15.1504 42 2542
+ 0.088282 25 15 ack 40 ------- 0 25.465 15.1487 9 2675
- 0.088282 25 15 ack 40 ------- 0 25.465 15.1487 9 2675
r 0.089429 25 15 ack 40 ------- 0 25.465 15.1487 7 2588
+ 0.089514 25 15 ack 40 ------- 0 25.465 15.1487 10 2717
- 0.089514 25 15 ack 40 ------- 0 25.465 15.1487 10 2717
r 0.090661 25 15 ack 40 ------- 0 25.465 15.1487 8 2629
+ 0.090746 25 15 ack 40 ------- 0 25.465 15.1487 11 2762
- 0.090746 25 15 ack 40 ------- 0 25.465 15.1487 11 2762
r 0.091893 25 15 ack 40 ------- 0 25.465 15.1487 9 2675
+ 0.091978 25 15 ack 40 ------- 0 25.465 15.1487 12 2794
- 0.091978 25 15 ack 40 ------- 0 25.465 15.1487 12 2794
r 0.093125 25 15 ack 40 ------- 0 25.465 15.1487 10 2717
+ 0.09321 25 15 ack 40 ------- 0 25.465 15.1487 13 2829
- 0.09321 25 15 ack 40 ------- 0 25.465 15.1487 13 2829
+ 0.094268 25 15 tcp 40 ------- 0 6.1118 13.714 0 2119
- 0.094268 25 15 tcp 40 ------- 0 6.1118 13.714 0 2119
r 0.094357 25 15 ack 40 ------- 0 25.465 15.1487 11 2762
+ 0.094442 25 15 ack 40 ------- 0 25.465 15.1487 14 2859
- 0.094442 25 15 ack 40 ------- 0 25.465 15.1487 14 2859
r 0.095589 25 15 ack 40 ------- 0 25.465 15.1487 12 2794
+ 0.095674 25 15 ack 40 ------- 0 25.482 15.1504 43 2891
- 0.095674 25 15 ack 40 ------- 0 25.482 15.1504 43 2891
r 0.096821 25 15 ack 40 ------- 0 25.465 15.1487 13 2829
+ 0.096938 25 15 ack 40 ------- 0 25.482 15.1504 44 2937
- 0.096938 25 15 ack 40 ------- 0 25.482 15.1504 44 2937
r 0.097879 25 15 tcp 40 ------- 0 6.1118 13.714 0 2119
+ 0.098028 25 15 tcp 1540 ------- 0 6.1157 14.717 1 2266
- 0.098028 25 15 tcp 1540 ------- 0 6.1157 14.717 1 2266
r 0.098053 25 15 ack 40 ------- 0 25.465 15.1487 14 2859
+ 0.09817 25 15 ack 40 ------- 0 25.482 15.1504 45 2989
+ 0.09926 25 15 tcp 1540 ------- 0 6.1157 14.717 2 2267
- 0.09926 25 15 ack 40 ------- 0 25.482 15.1504 45 2989
r 0.099285 25 15 ack 40 ------- 0 25.482 15.1504 43 2891
+ 0.099292 25 15 ack 40 ------- 0 6.674 15.279 0 2369
- 0.099292 25 15 tcp 1540 ------- 0 6.1157 14.717 2 2267
- 0.100524 25 15 ack 40 ------- 0 6.674 15.279 0 2369
r 0.100549 25 15 ack 40 ------- 0 25.482 15.1504 44 2937
+ 0.101898 25 15 ack 40 ------- 0 25.482 15.1504 46 3125
- 0.101898 25 15 ack 40 ------- 0 25.482 15.1504 46 3125
+ 0.102566 25 15 tcp 40 ------- 0 20.459 14.1027 0 1953
- 0.102566 25 15 tcp 40 ------- 0 20.459 14.1027 0 1953
r 0.102839 25 15 tcp 1540 ------- 0 6.1157 14.717 1 2266
r 0.102871 25 15 ack 40 ------- 0 25.482 15.1504 45 2989
r 0.104103 25 15 tcp 1540 ------- 0 6.1157 14.717 2 2267
r 0.104135 25 15 ack 40 ------- 0 6.674 15.279 0 2369
r 0.105509 25 15 ack 40 ------- 0 25.482 15.1504 46 3125
+ 0.105626 25 15 ack 40 ------- 0 25.482 15.1504 47 3256
- 0.105626 25 15 ack 40 ------- 0 25.482 15.1504 47 3256
r 0.106178 25 15 tcp 40 ------- 0 20.459 14.1027 0 1953
+ 0.106858 25 15 ack 40 ------- 0 25.482 15.1504 48 3283
- 0.106858 25 15 ack 40 ------- 0 25.482 15.1504 48 3283
+ 0.10809 25 15 ack 40 ------- 0 25.482 15.1504 49 3319
- 0.10809 25 15 ack 40 ------- 0 25.482 15.1504 49 3319
r 0.109237 25 15 ack 40 ------- 0 25.482 15.1504 47 3256
+ 0.109343 25 15 ack 40 ------- 0 25.482 15.1504 50 3360
- 0.109343 25 15 ack 40 ------- 0 25.482 15.1504 50 3360
r 0.110469 25 15 ack 40 ------- 0 25.482 15.1504 48 3283
+ 0.110575 25 15 ack 40 ------- 0 25.482 15.1504 51 3396
- 0.110575 25 15 ack 40 ------- 0 25.482 15.1504 51 3396
r 0.111701 25 15 ack 40 ------- 0 25.482 15.1504 49 3319
+ 0.111807 25 15 ack 40 ------- 0 25.482 15.1504 52 3446
- 0.111807 25 15 ack 40 ------- 0 25.482 15.1504 52 3446
+ 0.112678 25 15 ack 40 ------- 0 20.1015 12.1177 0 2317
- 0.112678 25 15 ack 40 ------- 0 20.1015 12.1177 0 2317
r 0.112954 25 15 ack 40 ------- 0 25.482 15.1504 50 3360
+ 0.113039 25 15 ack 40 ------- 0 25.482 15.1504 53 3480
- 0.113039 25 15 ack 40 ------- 0 25.482 15.1504 53 3480
r 0.114186 25 15 ack 40 ------- 0 25.482 15.1504 51 3396
+ 0.114271 25 15 ack 40 ------- 0 25.482 15.1504 54 3503
- 0.114271 25 15 ack 40 ------- 0 25.482 15.1504 54 3503
r 0.115418 25 15 ack 40 ------- 0 25.482 15.1504 52 3446
+ 0.115503 25 15 ack 40 ------- 0 25.482 15.1504 55 3547
- 0.115503 25 15 ack 40 ------- 0 25.482 15.1504 55 3547
r 0.11629 25 15 ack 40 ------- 0 20.1015 12.1177 0 2317
r 0.11665 25 15 ack 40 ------- 0 25.482 15.1504 53 3480
+ 0.116735 25 15 ack 40 ------- 0 25.482 15.1504 56 3573
- 0.116735 25 15 ack 40 ------- 0 25.482 15.1504 56 3573
r 0.117882 25 15 ack 40 ------- 0 25.482 15.1504 54 3503
+ 0.117967 25 15 ack 40 ------- 0 25.482 15.1504 57 3602
- 0.117967 25 15 ack 40 ------- 0 25.482 15.1504 57 3602
r 0.119114 25 15 ack 40 ------- 0 25.482 15.1504 55 3547
+ 0.119199 25 15 ack 40 ------- 0 25.482 15.1504 58 3636
- 0.119199 25 15 ack 40 ------- 0 25.482 15.1504 58 3636
r 0.120346 25 15 ack 40 ------- 0 25.482 15.1504 56 3573
+ 0.120431 25 15 ack 40 ------- 0 25.482 15.1504 59 3680
- 0.120431 25 15 ack 40 ------- 0 25.482 15.1504 59 3680
r 0.121578 25 15 ack 40 ------- 0 25.482 15.1504 57 3602
+ 0.121663 25 15 ack 40 ------- 0 25.482 15.1504 60 3727
- 0.121663 25 15 ack 40 ------- 0 25.482 15.1504 60 3727
+ 0.12279 25 15 ack 40 ------- 0 20.1012 12.1174 0 2574
- 0.12279 25 15 ack 40 ------- 0 20.1012 12.1174 0 2574
r 0.12281 25 15 ack 40 ------- 0 25.482 15.1504 58 3636
+ 0.122895 25 15 ack 40 ------- 0 25.482 15.1504 61 3761
- 0.122895 25 15 ack 40 ------- 0 25.482 15.1504 61 3761
+ 0.122918 25 15 tcp 40 ------- 0 20.316 11.911 0 2579
- 0.122927 25 15 tcp 40 ------- 0 20.316 11.911 0 2579
+ 0.123174 25 15 tcp 40 ------- 0 20.469 14.1037 0 2698
- 0.123174 25 15 tcp 40 ------- 0 20.469 14.1037 0 2698
+ 0.123302 25 15 tcp 40 ------- 0 20.446 13.1060 0 2796
- 0.123302 25 15 tcp 40 ------- 0 20.446 13.1060 0 2796
+ 0.12343 25 15 ack 40 ------- 0 20.1103 13.1461 0 2852
- 0.12343 25 15 ack 40 ------- 0 20.1103 13.1461 0 2852
r 0.124042 25 15 ack 40 ------- 0 25.482 15.1504 59 3680
+ 0.124124 25 15 tcp 40 ------- 0 6.1074 13.670 0 2971
- 0.124124 25 15 tcp 40 ------- 0 6.1074 13.670 0 2971
+ 0.124127 25 15 ack 40 ------- 0 25.482 15.1504 62 3802
- 0.124156 25 15 ack 40 ------- 0 25.482 15.1504 62 3802
r 0.125274 25 15 ack 40 ------- 0 25.482 15.1504 60 3727
+ 0.125359 25 15 ack 40 ------- 0 25.465 15.1487 15 3862
- 0.125359 25 15 ack 40 ------- 0 25.465 15.1487 15 3862
r 0.126402 25 15 ack 40 ------- 0 20.1012 12.1174 0 2574
r 0.126506 25 15 ack 40 ------- 0 25.482 15.1504 61 3761
r 0.126538 25 15 tcp 40 ------- 0 20.316 11.911 0 2579
+ 0.126591 25 15 ack 40 ------- 0 25.465 15.1487 16 3906
- 0.126591 25 15 ack 40 ------- 0 25.465 15.1487 16 3906
r 0.126786 25 15 tcp 40 ------- 0 20.469 14.1037 0 2698
r 0.126914 25 15 tcp 40 ------- 0 20.446 13.1060 0 2796
r 0.127042 25 15 ack 40 ------- 0 20.1103 13.1461 0 2852
r 0.127735 25 15 tcp 40 ------- 0 6.1074 13.670 0 2971
r 0.127767 25 15 ack 40 ------- 0 25.482 15.1504 62 3802
+ 0.127823 25 15 ack 40 ------- 0 25.465 15.1487 17 3956
- 0.127823 25 15 ack 40 ------- 0 25.465 15.1487 17 3956
r 0.12897 25 15 ack 40 ------- 0 25.465 15.1487 15 3862
+ 0.129055 25 15 ack 40 ------- 0 25.465 15.1487 18 3989
- 0.129055 25 15 ack 40 ------- 0 25.465 15.1487 18 3989
r 0.130202 25 15 ack 40 ------- 0 25.465 15.1487 16 3906
+ 0.130287 25 15 ack 40 ------- 0 25.465 15.1487 19 4019
- 0.130287 25 15 ack 40 ------- 0 25.465 15.1487 19 4019
+ 0.130412 25 15 tcp 1540 ------- 0 6.1236 15.911 1 3152
- 0.130412 25 15 tcp 1540 ------- 0 6.1236 15.911 1 3152
r 0.131434 25 15 ack 40 ------- 0 25.465 15.1487 17 3956
+ 0.131519 25 15 ack 40 ------- 0 25.465 15.1487 20 4062
+ 0.131644 25 15 tcp 1540 ------- 0 6.1236 15.911 2 3153
- 0.131644 25 15 ack 40 ------- 0 25.465 15.1487 20 4062
- 0.131676 25 15 tcp 1540 ------- 0 6.1236 15.911 2 3153
r 0.132666 25 15 ack 40 ------- 0 25.465 15.1487 18 3989
+ 0.132751 25 15 ack 40 ------- 0 25.465 15.1487 21 4095
+ 0.132908 25 15 tcp 1540 ------- 0 6.1207 15.882 1 3238
- 0.132908 25 15 ack 40 ------- 0 25.465 15.1487 21 4095
- 0.13294 25 15 tcp 1540 ------- 0 6.1207 15.882 1 3238
r 0.133898 25 15 ack 40 ------- 0 25.465 15.1487 19 4019
+ 0.133983 25 15 ack 40 ------- 0 25.465 15.1487 22 4126
+ 0.13414 25 15 tcp 1540 ------- 0 6.1207 15.882 2 3239
- 0.134172 25 15 ack 40 ------- 0 25.465 15.1487 22 4126
- 0.134204 25 15 tcp 1540 ------- 0 6.1207 15.882 2 3239
+ 0.135215 25 15 ack 40 ------- 0 25.465 15.1487 23 4176
r 0.135223 25 15 tcp 1540 ------- 0 6.1236 15.911 1 3152
r 0.135255 25 15 ack 40 ------- 0 25.465 15.1487 20 4062
+ 0.135404 25 15 ack 40 ------- 0 6.705 15.310 3 3311
- 0.135436 25 15 ack 40 ------- 0 25.465 15.1487 23 4176
- 0.135468 25 15 ack 40 ------- 0 6.705 15.310 3 3311
+ 0.136447 25 15 ack 40 ------- 0 25.465 15.1487 24 4211
- 0.136447 25 15 ack 40 ------- 0 25.465 15.1487 24 4211
r 0.136487 25 15 tcp 1540 ------- 0 6.1236 15.911 2 3153
r 0.136519 25 15 ack 40 ------- 0 25.465 15.1487 21 4095
+ 0.137679 25 15 ack 40 ------- 0 25.465 15.1487 25 4246
- 0.137679 25 15 ack 40 ------- 0 25.465 15.1487 25 4246
r 0.137751 25 15 tcp 1540 ------- 0 6.1207 15.882 1 3238
r 0.137783 25 15 ack 40 ------- 0 25.465 15.1487 22 4126
+ 0.137932 25 15 ack 40 ------- 0 6.705 15.310 4 3350
- 0.137932 25 15 ack 40 ------- 0 6.705 15.310 4 3350
+ 0.138911 25 15 ack 40 ------- 0 25.465 15.1487 26 4276
- 0.138911 25 15 ack 40 ------- 0 25.465 15.1487 26 4276
r 0.139015 25 15 tcp 1540 ------- 0 6.1207 15.882 2 3239
r 0.139047 25 15 ack 40 ------- 0 25.465 15.1487 23 4176
r 0.139079 25 15 ack 40 ------- 0 6.705 15.310 3 3311
r 0.140058 25 15 ack 40 ------- 0 25.465 15.1487 24 4211
+ 0.140143 25 15 ack 40 ------- 0 25.465 15.1487 27 4327
- 0.140143 25 15 ack 40 ------- 0 25.465 15.1487 27 4327
r 0.14129 25 15 ack 40 ------- 0 25.465 15.1487 25 4246
+ 0.141375 25 15 ack 40 ------- 0 25.465 15.1487 28 4362
- 0.141375 25 15 ack 40 ------- 0 25.465 15.1487 28 4362
r 0.141543 25 15 ack 40 ------- 0 6.705 15.310 4 3350
r 0.142522 25 15 ack 40 ------- 0 25.465 15.1487 26 4276
+ 0.142607 25 15 ack 40 ------- 0 25.465 15.1487 29 4401
- 0.142607 25 15 ack 40 ------- 0 25.465 15.1487 29 4401
+ 0.143654 25 15 tcp 40 ------- 0 20.489 14.1057 0 3454
- 0.143654 25 15 tcp 40 ------- 0 20.489 14.1057 0 3454
r 0.143754 25 15 ack 40 ------- 0 25.465 15.1487 27 4327
+ 0.143839 25 15 ack 40 ------- 0 25.465 15.1487 30 4438
- 0.143839 25 15 ack 40 ------- 0 25.465 15.1487 30 4438
r 0.144986 25 15 ack 40 ------- 0 25.465 15.1487 28 4362
+ 0.145356 25 15 ack 40 ------- 0 6.705 15.310 5 3432
- 0.145356 25 15 ack 40 ------- 0 6.705 15.310 5 3432
r 0.146218 25 15 ack 40 ------- 0 25.465 15.1487 29 4401
+ 0.146303 25 15 ack 40 ------- 0 25.482 15.1504 63 4538
- 0.146303 25 15 ack 40 ------- 0 25.482 15.1504 63 4538
r 0.147266 25 15 tcp 40 ------- 0 20.489 14.1057 0 3454
r 0.14745 25 15 ack 40 ------- 0 25.465 15.1487 30 4438
+ 0.148582 25 15 tcp 1540 ------- 0 20.551 14.1119 1 3473
- 0.148582 25 15 tcp 1540 ------- 0 20.551 14.1119 1 3473
+ 0.148767 25 15 ack 40 ------- 0 25.482 15.1504 64 4631
r 0.148967 25 15 ack 40 ------- 0 6.705 15.310 5 3432
+ 0.149084 25 15 ack 40 ------- 0 6.705 15.310 6 3472
- 0.149814 25 15 ack 40 ------- 0 25.482 15.1504 64 4631
- 0.149846 25 15 ack 40 ------- 0 6.705 15.310 6 3472
r 0.149914 25 15 ack 40 ------- 0 25.482 15.1504 63 4538
+ 0.149999 25 15 ack 40 ------- 0 25.482 15.1504 65 4677
- 0.149999 25 15 ack 40 ------- 0 25.482 15.1504 65 4677
r 0.153394 25 15 tcp 1540 ------- 0 20.551 14.1119 1 3473
r 0.153426 25 15 ack 40 ------- 0 25.482 15.1504 64 4631
r 0.153458 25 15 ack 40 ------- 0 6.705 15.310 6 3472
+ 0.15351 25 15 tcp 1540 ------- 0 20.551 14.1119 2 3474
- 0.15351 25 15 tcp 1540 ------- 0 20.551 14.1119 2 3474
r 0.15361 25 15 ack 40 ------- 0 25.482 15.1504 65 4677
+ 0.153695 25 15 ack 40 ------- 0 25.482 15.1504 66 4792
- 0.154742 25 15 ack 40 ------- 0 25.482 15.1504 66 4792
+ 0.154927 25 15 ack 40 ------- 0 25.482 15.1504 67 4844
- 0.154927 25 15 ack 40 ------- 0 25.482 15.1504 67 4844
+ 0.156159 25 15 ack 40 ------- 0 25.482 15.1504 68 4883
- 0.156159 25 15 ack 40 ------- 0 25.482 15.1504 68 4883
+ 0.157391 25 15 ack 40 ------- 0 25.482 15.1504 69 4931
- 0.157391 25 15 ack 40 ------- 0 25.482 15.1504 69 4931
+ 0.15774 25 15 tcp 40 ------- 0 6.1137 14.697 0 3609
- 0.15774 25 15 tcp 40 ------- 0 6.1137 14.697 0 3609
r 0.158322 25 15 tcp 1540 ------- 0 20.551 14.1119 2 3474
r 0.158354 25 15 ack 40 ------- 0 25.482 15.1504 66 4792
r 0.158538 25 15 ack 40 ------- 0 25.482 15.1504 67 4844
+ 0.158623 25 15 ack 40 ------- 0 25.482 15.1504 70 4961
- 0.158623 25 15 ack 40 ------- 0 25.482 15.1504 70 4961
r 0.15977 25 15 ack 40 ------- 0 25.482 15.1504 68 4883
+ 0.159855 25 15 ack 40 ------- 0 25.482 15.1504 71 5002
- 0.159855 25 15 ack 40 ------- 0 25.482 15.1504 71 5002
r 0.161002 25 15 ack 40 ------- 0 25.482 15.1504 69 4931
+ 0.161119 25 15 ack 40 ------- 0 25.482 15.1504 72 5067
- 0.161119 25 15 ack 40 ------- 0 25.482 15.1504 72 5067
r 0.161351 25 15 tcp 40 ------- 0 6.1137 14.697 0 3609
r 0.162234 25 15 ack 40 ------- 0 25.482 15.1504 70 4961
+ 0.162383 25 15 ack 40 ------- 0 25.482 15.1504 73 5116
- 0.162383 25 15 ack 40 ------- 0 25.482 15.1504 73 5116
r 0.163466 25 15 ack 40 ------- 0 25.482 15.1504 71 5002
+ 0.163615 25 15 ack 40 ------- 0 25.482 15.1504 74 5173
- 0.163615 25 15 ack 40 ------- 0 25.482 15.1504 74 5173
+ 0.164028 25 15 tcp 40 ------- 0 6.1115 13.711 0 3805
- 0.164028 25 15 tcp 40 ------- 0 6.1115 13.711 0 3805
r 0.16473 25 15 ack 40 ------- 0 25.482 15.1504 72 5067
+ 0.164847 25 15 ack 40 ------- 0 25.482 15.1504 75 5205
- 0.164847 25 15 ack 40 ------- 0 25.482 15.1504 75 5205
r 0.165994 25 15 ack 40 ------- 0 25.482 15.1504 73 5116
+ 0.166079 25 15 ack 40 ------- 0 25.482 15.1504 76 5269
- 0.166079 25 15 ack 40 ------- 0 25.482 15.1504 76 5269
r 0.167226 25 15 ack 40 ------- 0 25.482 15.1504 74 5173
+ 0.167311 25 15 ack 40 ------- 0 25.482 15.1504 77 5315
- 0.167311 25 15 ack 40 ------- 0 25.482 15.1504 77 5315
r 0.167639 25 15 tcp 40 ------- 0 6.1115 13.711 0 3805
r 0.168458 25 15 ack 40 ------- 0 25.482 15.1504 75 5205
+ 0.168543 25 15 ack 40 ------- 0 25.482 15.1504 78 5353
- 0.168543 25 15 ack 40 ------- 0 25.482 15.1504 78 5353
r 0.16969 25 15 ack 40 ------- 0 25.482 15.1504 76 5269
+ 0.169775 25 15 ack 40 ------- 0 25.482 15.1504 79 5402
- 0.169775 25 15 ack 40 ------- 0 25.482 15.1504 79 5402
r 0.170922 25 15 ack 40 ------- 0 25.482 15.1504 77 5315
+ 0.171071 25 15 ack 40 ------- 0 25.482 15.1504 80 5472
- 0.171071 25 15 ack 40 ------- 0 25.482 15.1504 80 5472
r 0.172154 25 15 ack 40 ------- 0 25.482 15.1504 78 5353
+ 0.172303 25 15 ack 40 ------- 0 25.482 15.1504 81 5559
- 0.172303 25 15 ack 40 ------- 0 25.482 15.1504 81 5559
r 0.173386 25 15 ack 40 ------- 0 25.482 15.1504 79 5402
r 0.174682 25 15 ack 40 ------- 0 25.482 15.1504 80 5472
+ 0.174767 25 15 ack 40 ------- 0 25.482 15.1504 82 5640
- 0.174767 25 15 ack 40 ------- 0 25.482 15.1504 82 5640
r 0.175914 25 15 ack 40 ------- 0 25.482 15.1504 81 5559
+ 0.175999 25 15 ack 40 ------- 0 25.465 15.1487 31 5687
- 0.175999 25 15 ack 40 ------- 0 25.465 15.1487 31 5687
+ 0.177231 25 15 ack 40 ------- 0 25.465 15.1487 32 5728
- 0.177231 25 15 ack 40 ------- 0 25.465 15.1487 32 5728
r 0.178378 25 15 ack 40 ------- 0 25.482 15.1504 82 5640
+ 0.178463 25 15 ack 40 ------- 0 25.465 15.1487 33 5766
- 0.178463 25 15 ack 40 ------- 0 25.465 15.1487 33 5766
r 0.17961 25 15 ack 40 ------- 0 25.465 15.1487 31 5687
+ 0.179695 25 15 ack 40 ------- 0 25.465 15.1487 34 5808
- 0.179695 25 15 ack 40 ------- 0 25.465 15.1487 34 5808
r 0.180842 25 15 ack 40 ------- 0 25.465 15.1487 32 5728
+ 0.180927 25 15 ack 40 ------- 0 25.465 15.1487 35 5841
- 0.180927 25 15 ack 40 ------- 0 25.465 15.1487 35 5841
r 0.182074 25 15 ack 40 ------- 0 25.465 15.1487 33 5766
+ 0.182159 25 15 ack 40 ------- 0 25.465 15.1487 36 5883
- 0.182159 25 15 ack 40 ------- 0 25.465 15.1487 36 5883
r 0.183306 25 15 ack 40 ------- 0 25.465 15.1487 34 5808
+ 0.183423 25 15 ack 40 ------- 0 25.465 15.1487 37 5921
- 0.183423 25 15 ack 40 ------- 0 25.465 15.1487 37 5921
r 0.184538 25 15 ack 40 ------- 0 25.465 15.1487 35 5841
+ 0.184655 25 15 ack 40 ------- 0 25.465 15.1487 38 5959
- 0.184655 25 15 ack 40 ------- 0 25.465 15.1487 38 5959
+ 0.184687 25 15 ack 40 ------- 0 25.339 11.1443 0 5960
- 0.184687 25 15 ack 40 ------- 0 25.339 11.1443 0 5960
r 0.18577 25 15 ack 40 ------- 0 25.465 15.1487 36 5883
+ 0.185919 25 15 ack 40 ------- 0 25.465 15.1487 39 6012
- 0.185919 25 15 ack 40 ------- 0 25.465 15.1487 39 6012
r 0.187034 25 15 ack 40 ------- 0 25.465 15.1487 37 5921
+ 0.187183 25 15 ack 40 ------- 0 25.465 15.1487 40 6041
- 0.187183 25 15 ack 40 ------- 0 25.465 15.1487 40 6041
r 0.188266 25 15 ack 40 ------- 0 25.465 15.1487 38 5959
r 0.188298 25 15 ack 40 ------- 0 25.339 11.1443 0 5960
+ 0.188447 25 15 ack 40 ------- 0 25.465 15.1487 41 6077
- 0.188447 25 15 ack 40 ------- 0 25.465 15.1487 41 6077
r 0.18953 25 15 ack 40 ------- 0 25.465 15.1487 39 6012
+ 0.189711 25 15 ack 40 ------- 0 25.465 15.1487 42 6134
- 0.189711 25 15 ack 40 ------- 0 25.465 15.1487 42 6134
r 0.190794 25 15 ack 40 ------- 0 25.465 15.1487 40 6041
+ 0.190975 25 15 ack 40 ------- 0 25.465 15.1487 43 6183
- 0.190975 25 15 ack 40 ------- 0 25.465 15.1487 43 6183
r 0.192058 25 15 ack 40 ------- 0 25.465 15.1487 41 6077
r 0.193322 25 15 ack 40 ------- 0 25.465 15.1487 42 6134
+ 0.193439 25 15 ack 40 ------- 0 25.465 15.1487 43 6253
- 0.193439 25 15 ack 40 ------- 0 25.465 15.1487 43 6253
r 0.194586 25 15 ack 40 ------- 0 25.465 15.1487 43 6183
+ 0.194703 25 15 ack 40 ------- 0 25.374 11.1478 0 6289