+ 0.007357 11 12 rtProtoDV 26 ------- 0 11.1480 12.1311 -1 173
- 0.007357 11 12 rtProtoDV 26 ------- 0 11.1480 12.1311 -1 173
r 0.008421 11 12 rtProtoDV 26 ------- 0 11.1480 12.1311 -1 173
+ 0.009398 11 12 rtProtoDV 26 ------- 0 11.1480 12.1311 -1 249
- 0.009398 11 12 rtProtoDV 26 ------- 0 11.1480 12.1311 -1 249
+ 0.009485 11 12 rtProtoDV 26 ------- 0 11.1480 12.1311 -1 254
- 0.009485 11 12 rtProtoDV 26 ------- 0 11.1480 12.1311 -1 254
+ 0.009872 11 12 rtProtoDV 26 ------- 0 11.1480 12.1311 -1 282
- 0.009872 11 12 rtProtoDV 26 ------- 0 11.1480 12.1311 -1 282
+ 0.010434 11 12 tcp 40 ------- 0 11.1096 12.569 0 316
- 0.010434 11 12 tcp 40 ------- 0 11.1096 12.569 0 316
r 0.010463 11 12 rtProtoDV 26 ------- 0 11.1480 12.1311 -1 249
r 0.010549 11 12 rtProtoDV 26 ------- 0 11.1480 12.1311 -1 254
r 0.010936 11 12 rtProtoDV 26 ------- 0 11.1480 12.1311 -1 282
+ 0.011224 11 12 rtProtoDV 26 ------- 0 11.1480 12.1311 -1 377
- 0.011224 11 12 rtProtoDV 26 ------- 0 11.1480 12.1311 -1 377
+ 0.011515 11 12 rtProtoDV 26 ------- 0 11.1480 12.1311 -1 394
- 0.011515 11 12 rtProtoDV 26 ------- 0 11.1480 12.1311 -1 394
r 0.011543 11 12 tcp 40 ------- 0 11.1096 12.569 0 316
r 0.012288 11 12 rtProtoDV 26 ------- 0 11.1480 12.1311 -1 377
r 0.012579 11 12 rtProtoDV 26 ------- 0 11.1480 12.1311 -1 394
+ 0.012652 11 12 tcp 1540 ------- 0 11.1096 12.569 1 453
- 0.012652 11 12 tcp 1540 ------- 0 11.1096 12.569 1 453
+ 0.012652 11 12 tcp 1540 ------- 0 11.1096 12.569 2 454
+ 0.012911 11 12 rtProtoDV 26 ------- 0 11.1480 12.1311 -1 458
+ 0.013281 11 12 rtProtoDV 26 ------- 0 11.1480 12.1311 -1 483
+ 0.013926 11 12 tcp 40 ------- 0 11.1193 14.880 0 518
- 0.01758 11 12 tcp 1540 ------- 0 11.1096 12.569 2 454
r 0.018561 11 12 tcp 1540 ------- 0 11.1096 12.569 1 453
+ 0.01901 11 12 tcp 40 ------- 0 2.949 12.395 0 549
+ 0.01967 11 12 tcp 1540 ------- 0 11.1096 12.569 3 739
+ 0.01967 11 12 tcp 1540 ------- 0 11.1096 12.569 4 740
+ 0.020323 11 12 tcp 40 ------- 0 11.169 4.423 0 751
+ 0.020947 11 12 tcp 40 ------- 0 11.1381 20.975 0 767
- 0.022508 11 12 rtProtoDV 26 ------- 0 11.1480 12.1311 -1 458
- 0.022591 11 12 rtProtoDV 26 ------- 0 11.1480 12.1311 -1 483
- 0.022674 11 12 tcp 40 ------- 0 11.1193 14.880 0 518
- 0.022802 11 12 tcp 40 ------- 0 2.949 12.395 0 549
- 0.02293 11 12 tcp 1540 ------- 0 11.1096 12.569 3 739
r 0.023489 11 12 tcp 1540 ------- 0 11.1096 12.569 2 454
r 0.023572 11 12 rtProtoDV 26 ------- 0 11.1480 12.1311 -1 458
r 0.023655 11 12 rtProtoDV 26 ------- 0 11.1480 12.1311 -1 483
r 0.023783 11 12 tcp 40 ------- 0 11.1193 14.880 0 518
r 0.023911 11 12 tcp 40 ------- 0 2.949 12.395 0 549
+ 0.024598 11 12 tcp 1540 ------- 0 11.1096 12.569 5 871
+ 0.024598 11 12 tcp 1540 ------- 0 11.1096 12.569 6 872
+ 0.026097 11 12 tcp 40 ------- 0 11.197 5.517 0 895
- 0.027858 11 12 tcp 1540 ------- 0 11.1096 12.569 4 740
r 0.028839 11 12 tcp 1540 ------- 0 11.1096 12.569 3 739
+ 0.029948 11 12 tcp 1540 ------- 0 11.1096 12.569 7 989
+ 0.029948 11 12 tcp 1540 ------- 0 11.1096 12.569 8 990
+ 0.030162 11 12 ack 40 ------- 0 18.631 13.1383 0 847
+ 0.030788 11 12 tcp 1540 ------- 0 11.1193 14.880 1 1009
+ 0.030788 11 12 tcp 1540 ------- 0 11.1193 14.880 2 1010
d 0.030788 11 12 tcp 1540 ------- 0 11.1193 14.880 2 1010
+ 0.032114 11 12 ack 40 ------- 0 11.567 5.1219 0 1044
d 0.032114 11 12 ack 40 ------- 0 11.567 5.1219 0 1044
- 0.032786 11 12 tcp 40 ------- 0 11.169 4.423 0 751
- 0.032914 11 12 tcp 40 ------- 0 11.1381 20.975 0 767
- 0.033042 11 12 tcp 1540 ------- 0 11.1096 12.569 5 871
r 0.033767 11 12 tcp 1540 ------- 0 11.1096 12.569 4 740
r 0.033895 11 12 tcp 40 ------- 0 11.169 4.423 0 751
r 0.034023 11 12 tcp 40 ------- 0 11.1381 20.975 0 767
+ 0.034876 11 12 tcp 1540 ------- 0 11.1096 12.569 9 1097
+ 0.034876 11 12 tcp 1540 ------- 0 11.1096 12.569 10 1098
- 0.03797 11 12 tcp 1540 ------- 0 11.1096 12.569 6 872
r 0.038951 11 12 tcp 1540 ------- 0 11.1096 12.569 5 871
+ 0.039735 11 12 tcp 1540 ------- 0 2.949 12.395 1 977
+ 0.04006 11 12 tcp 1540 ------- 0 11.1096 12.569 11 1235
+ 0.04006 11 12 tcp 1540 ------- 0 11.1096 12.569 12 1236
d 0.04006 11 12 tcp 1540 ------- 0 11.1096 12.569 12 1236
- 0.042898 11 12 tcp 40 ------- 0 11.197 5.517 0 895
- 0.043026 11 12 tcp 1540 ------- 0 11.1096 12.569 7 989
r 0.043879 11 12 tcp 1540 ------- 0 11.1096 12.569 6 872
r 0.044007 11 12 tcp 40 ------- 0 11.197 5.517 0 895
+ 0.044663 11 12 tcp 1540 ------- 0 2.949 12.395 2 978
+ 0.044988 11 12 tcp 1540 ------- 0 11.1096 12.569 13 1363
+ 0.044988 11 12 tcp 1540 ------- 0 11.1096 12.569 14 1364
d 0.044988 11 12 tcp 1540 ------- 0 11.1096 12.569 14 1364
+ 0.046362 11 12 tcp 40 ------- 0 11.1042 12.515 0 1392
d 0.046362 11 12 tcp 40 ------- 0 11.1042 12.515 0 1392
- 0.047954 11 12 tcp 1540 ------- 0 11.1096 12.569 8 990
+ 0.048308 11 12 ack 40 ------- 0 11.612 5.1264 0 1438
r 0.048935 11 12 tcp 1540 ------- 0 11.1096 12.569 7 989
+ 0.050044 11 12 tcp 1540 ------- 0 11.1096 12.569 15 1485
d 0.050044 11 12 tcp 1540 ------- 0 11.1096 12.569 15 1485
+ 0.050044 11 12 tcp 1540 ------- 0 11.1096 12.569 16 1486
d 0.050044 11 12 tcp 1540 ------- 0 11.1096 12.569 16 1486
- 0.052882 11 12 ack 40 ------- 0 18.631 13.1383 0 847
- 0.05301 11 12 tcp 1540 ------- 0 11.1193 14.880 1 1009
r 0.053863 11 12 tcp 1540 ------- 0 11.1096 12.569 8 990
r 0.053991 11 12 ack 40 ------- 0 18.631 13.1383 0 847
+ 0.054903 11 12 ack 40 ------- 0 18.581 12.1066 0 1067
+ 0.054972 11 12 tcp 1540 ------- 0 11.1096 12.569 17 1619
+ 0.054972 11 12 tcp 1540 ------- 0 11.1096 12.569 18 1620
d 0.054972 11 12 tcp 1540 ------- 0 11.1096 12.569 18 1620
+ 0.055031 11 12 tcp 40 ------- 0 2.950 12.396 0 1156
d 0.055031 11 12 tcp 40 ------- 0 2.950 12.396 0 1156
+ 0.056107 11 12 tcp 40 ------- 0 10.857 14.841 0 1592
d 0.056107 11 12 tcp 40 ------- 0 10.857 14.841 0 1592
+ 0.057462 11 12 ack 40 ------- 0 2.402 13.50 0 1563
d 0.057462 11 12 ack 40 ------- 0 2.402 13.50 0 1563
+ 0.05759 11 12 ack 40 ------- 0 2.400 13.48 0 1564
d 0.05759 11 12 ack 40 ------- 0 2.400 13.48 0 1564
- 0.057938 11 12 tcp 1540 ------- 0 11.1096 12.569 9 1097
+ 0.058388 11 12 tcp 1540 ------- 0 11.169 4.423 1 1709
+ 0.058388 11 12 tcp 1540 ------- 0 11.169 4.423 2 1710
d 0.058388 11 12 tcp 1540 ------- 0 11.169 4.423 2 1710
r 0.058919 11 12 tcp 1540 ------- 0 11.1193 14.880 1 1009
+ 0.062704 11 12 tcp 40 ------- 0 2.979 13.589 0 1686
d 0.062704 11 12 tcp 40 ------- 0 2.979 13.589 0 1686
- 0.062866 11 12 tcp 1540 ------- 0 11.1096 12.569 10 1098
r 0.063847 11 12 tcp 1540 ------- 0 11.1096 12.569 9 1097
+ 0.064956 11 12 tcp 1540 ------- 0 11.1096 12.569 19 1893
+ 0.064956 11 12 tcp 1540 ------- 0 11.1096 12.569 20 1894
d 0.064956 11 12 tcp 1540 ------- 0 11.1096 12.569 20 1894
- 0.067794 11 12 tcp 1540 ------- 0 2.949 12.395 1 977
r 0.068775 11 12 tcp 1540 ------- 0 11.1096 12.569 10 1098
+ 0.070782 11 12 tcp 1540 ------- 0 11.1096 12.569 21 2066
+ 0.070782 11 12 tcp 1540 ------- 0 11.1096 12.569 22 2067
d 0.070782 11 12 tcp 1540 ------- 0 11.1096 12.569 22 2067
- 0.072722 11 12 tcp 1540 ------- 0 11.1096 12.569 11 1235
r 0.073703 11 12 tcp 1540 ------- 0 2.949 12.395 1 977
+ 0.075966 11 12 ack 40 ------- 0 11.735 14.255 0 2250
- 0.07765 11 12 tcp 1540 ------- 0 2.949 12.395 2 978
r 0.078631 11 12 tcp 1540 ------- 0 11.1096 12.569 11 1235
+ 0.078923 11 12 ack 40 ------- 0 11.701 12.270 0 2356
+ 0.07974 11 12 tcp 1540 ------- 0 11.1096 12.569 23 2388
d 0.07974 11 12 tcp 1540 ------- 0 11.1096 12.569 23 2388
+ 0.07974 11 12 tcp 1540 ------- 0 11.1096 12.569 24 2389
d 0.07974 11 12 tcp 1540 ------- 0 11.1096 12.569 24 2389
+ 0.080928 11 12 tcp 1540 ------- 0 11.1193 14.880 3 2427
d 0.080928 11 12 tcp 1540 ------- 0 11.1193 14.880 3 2427
+ 0.080928 11 12 tcp 1540 ------- 0 11.1193 14.880 4 2428
d 0.080928 11 12 tcp 1540 ------- 0 11.1193 14.880 4 2428
+ 0.082149 11 12 tcp 40 ------- 0 11.1090 12.563 0 2468
d 0.082149 11 12 tcp 40 ------- 0 11.1090 12.563 0 2468
- 0.082578 11 12 tcp 1540 ------- 0 11.1096 12.569 13 1363
r 0.083559 11 12 tcp 1540 ------- 0 2.949 12.395 2 978
+ 0.085506 11 12 tcp 40 ------- 0 2.962 13.572 0 1887
+ 0.085762 11 12 tcp 40 ------- 0 18.188 13.947 0 1884
d 0.085762 11 12 tcp 40 ------- 0 18.188 13.947 0 1884
+ 0.086274 11 12 ack 40 ------- 0 9.711 13.206 0 1872
d 0.086274 11 12 ack 40 ------- 0 9.711 13.206 0 1872
+ 0.086402 11 12 tcp 40 ------- 0 2.951 12.397 0 2399
d 0.086402 11 12 tcp 40 ------- 0 2.951 12.397 0 2399
- 0.087506 11 12 ack 40 ------- 0 11.612 5.1264 0 1438
- 0.087634 11 12 ack 40 ------- 0 18.581 12.1066 0 1067
- 0.087762 11 12 tcp 1540 ------- 0 11.1096 12.569 17 1619
r 0.088487 11 12 tcp 1540 ------- 0 11.1096 12.569 13 1363
r 0.088615 11 12 ack 40 ------- 0 11.612 5.1264 0 1438
r 0.088743 11 12 ack 40 ------- 0 18.581 12.1066 0 1067
+ 0.089596 11 12 tcp 1540 ------- 0 11.1096 12.569 25 2720
- 0.09269 11 12 tcp 1540 ------- 0 11.169 4.423 1 1709
+ 0.093307 11 12 tcp 40 ------- 0 10.809 13.753 0 2779
r 0.093671 11 12 tcp 1540 ------- 0 11.1096 12.569 17 1619
+ 0.096862 11 12 tcp 40 ------- 0 11.1379 20.973 0 2934
- 0.097618 11 12 tcp 1540 ------- 0 11.1096 12.569 19 1893
+ 0.097707 11 12 tcp 40 ------- 0 11.1385 20.979 0 2962
r 0.098599 11 12 tcp 1540 ------- 0 11.169 4.423 1 1709
+ 0.099964 11 12 tcp 1540 ------- 0 11.1096 12.569 26 3042
+ 0.100092 11 12 tcp 1540 ------- 0 11.197 5.517 1 3044
d 0.100092 11 12 tcp 1540 ------- 0 11.197 5.517 1 3044
+ 0.100092 11 12 tcp 1540 ------- 0 11.197 5.517 2 3045
d 0.100092 11 12 tcp 1540 ------- 0 11.197 5.517 2 3045
- 0.102546 11 12 tcp 1540 ------- 0 11.1096 12.569 21 2066
r 0.103527 11 12 tcp 1540 ------- 0 11.1096 12.569 19 1893
+ 0.104313 11 12 tcp 1540 ------- 0 11.1381 20.975 1 3211
+ 0.104313 11 12 tcp 1540 ------- 0 11.1381 20.975 2 3212
d 0.104313 11 12 tcp 1540 ------- 0 11.1381 20.975 2 3212
+ 0.104636 11 12 tcp 1540 ---A--- 0 11.1096 12.569 12 3225
d 0.104636 11 12 tcp 1540 ---A--- 0 11.1096 12.569 12 3225
- 0.107474 11 12 ack 40 ------- 0 11.735 14.255 0 2250
- 0.107602 11 12 ack 40 ------- 0 11.701 12.270 0 2356
- 0.10773 11 12 tcp 40 ------- 0 2.962 13.572 0 1887
- 0.107858 11 12 tcp 1540 ------- 0 11.1096 12.569 25 2720
r 0.108455 11 12 tcp 1540 ------- 0 11.1096 12.569 21 2066
r 0.108583 11 12 ack 40 ------- 0 11.735 14.255 0 2250
r 0.108711 11 12 ack 40 ------- 0 11.701 12.270 0 2356
r 0.108839 11 12 tcp 40 ------- 0 2.962 13.572 0 1887
- 0.112786 11 12 tcp 40 ------- 0 10.809 13.753 0 2779
- 0.112914 11 12 tcp 40 ------- 0 11.1379 20.973 0 2934
- 0.113042 11 12 tcp 40 ------- 0 11.1385 20.979 0 2962
- 0.11317 11 12 tcp 1540 ------- 0 11.1096 12.569 26 3042
r 0.113767 11 12 tcp 1540 ------- 0 11.1096 12.569 25 2720
r 0.113895 11 12 tcp 40 ------- 0 10.809 13.753 0 2779
r 0.114023 11 12 tcp 40 ------- 0 11.1379 20.973 0 2934
r 0.114151 11 12 tcp 40 ------- 0 11.1385 20.979 0 2962
+ 0.11462 11 12 ack 40 ------- 0 11.701 12.270 1 3517
- 0.118098 11 12 tcp 1540 ------- 0 11.1381 20.975 1 3211
r 0.119079 11 12 tcp 1540 ------- 0 11.1096 12.569 26 3042
+ 0.119548 11 12 ack 40 ------- 0 11.701 12.270 2 3655
+ 0.119719 11 12 tcp 40 ------- 0 11.174 4.428 0 3661
+ 0.119887 11 12 ack 40 ------- 0 11.540 5.1192 0 3666
+ 0.123013 11 12 tcp 40 ------- 0 11.281 5.601 0 3764
- 0.123026 11 12 ack 40 ------- 0 11.701 12.270 1 3517
- 0.123154 11 12 ack 40 ------- 0 11.701 12.270 2 3655
- 0.123282 11 12 tcp 40 ------- 0 11.174 4.428 0 3661
- 0.12341 11 12 ack 40 ------- 0 11.540 5.1192 0 3666
- 0.123538 11 12 tcp 40 ------- 0 11.281 5.601 0 3764
r 0.124007 11 12 tcp 1540 ------- 0 11.1381 20.975 1 3211
r 0.124135 11 12 ack 40 ------- 0 11.701 12.270 1 3517
r 0.124263 11 12 ack 40 ------- 0 11.701 12.270 2 3655
r 0.124391 11 12 tcp 40 ------- 0 11.174 4.428 0 3661
r 0.124519 11 12 ack 40 ------- 0 11.540 5.1192 0 3666
r 0.124647 11 12 tcp 40 ------- 0 11.281 5.601 0 3764
+ 0.129551 11 12 tcp 40 ------- 0 11.1197 14.884 0 4004
- 0.129551 11 12 tcp 40 ------- 0 11.1197 14.884 0 4004
+ 0.129757 11 12 tcp 40 ------- 0 11.1095 12.568 0 4006
- 0.129757 11 12 tcp 40 ------- 0 11.1095 12.568 0 4006
+ 0.130044 11 12 ack 40 ------- 0 11.701 12.270 3 4015
- 0.130044 11 12 ack 40 ------- 0 11.701 12.270 3 4015
r 0.13066 11 12 tcp 40 ------- 0 11.1197 14.884 0 4004
+ 0.130693 11 12 tcp 40 ------- 0 11.1443 25.339 0 4032
- 0.130693 11 12 tcp 40 ------- 0 11.1443 25.339 0 4032
r 0.130866 11 12 tcp 40 ------- 0 11.1095 12.568 0 4006
r 0.131153 11 12 ack 40 ------- 0 11.701 12.270 3 4015
r 0.131802 11 12 tcp 40 ------- 0 11.1443 25.339 0 4032
+ 0.134972 11 12 ack 40 ------- 0 11.701 12.270 4 4170
- 0.134972 11 12 ack 40 ------- 0 11.701 12.270 4 4170
r 0.136081 11 12 ack 40 ------- 0 11.701 12.270 4 4170
+ 0.1399 11 12 ack 40 ------- 0 11.701 12.270 5 4319
- 0.1399 11 12 ack 40 ------- 0 11.701 12.270 5 4319
+ 0.140642 11 12 ack 40 ------- 0 9.714 13.209 0 3572
- 0.140642 11 12 ack 40 ------- 0 9.714 13.209 0 3572
+ 0.14077 11 12 ack 40 ------- 0 18.631 13.1383 1 3598
- 0.14077 11 12 ack 40 ------- 0 18.631 13.1383 1 3598
+ 0.140863 11 12 tcp 40 ------- 0 11.1478 25.374 0 4346
- 0.140898 11 12 tcp 40 ------- 0 11.1478 25.374 0 4346
r 0.141009 11 12 ack 40 ------- 0 11.701 12.270 5 4319
r 0.141751 11 12 ack 40 ------- 0 9.714 13.209 0 3572
r 0.141879 11 12 ack 40 ------- 0 18.631 13.1383 1 3598
r 0.142007 11 12 tcp 40 ------- 0 11.1478 25.374 0 4346
+ 0.14254 11 12 tcp 40 ------- 0 11.170 4.424 0 4396
- 0.14254 11 12 tcp 40 ------- 0 11.170 4.424 0 4396
+ 0.142666 11 12 tcp 40 ------- 0 11.305 5.625 0 4402
- 0.142668 11 12 tcp 40 ------- 0 11.305 5.625 0 4402
r 0.143649 11 12 tcp 40 ------- 0 11.170 4.424 0 4396
r 0.143777 11 12 tcp 40 ------- 0 11.305 5.625 0 4402
+ 0.144828 11 12 ack 40 ------- 0 11.701 12.270 6 4479
- 0.144828 11 12 ack 40 ------- 0 11.701 12.270 6 4479
+ 0.144956 11 12 ack 40 ------- 0 11.695 12.264 0 4486
- 0.144956 11 12 ack 40 ------- 0 11.695 12.264 0 4486
+ 0.145826 11 12 tcp 1540 ------- 0 2.949 12.395 3 3765
- 0.145826 11 12 tcp 1540 ------- 0 2.949 12.395 3 3765
r 0.145937 11 12 ack 40 ------- 0 11.701 12.270 6 4479
+ 0.14606 11 12 tcp 40 ------- 0 11.1374 20.968 0 4522
r 0.146065 11 12 ack 40 ------- 0 11.695 12.264 0 4486
+ 0.149884 11 12 ack 40 ------- 0 11.735 14.255 1 4671
+ 0.150012 11 12 ack 40 ------- 0 11.600 5.1252 0 4678
+ 0.15014 11 12 tcp 1540 ------- 0 11.1095 12.568 1 4684
+ 0.15014 11 12 tcp 1540 ------- 0 11.1095 12.568 2 4685
+ 0.150754 11 12 tcp 1540 ------- 0 2.949 12.395 4 3766
- 0.150754 11 12 tcp 40 ------- 0 11.1374 20.968 0 4522
- 0.150882 11 12 ack 40 ------- 0 11.735 14.255 1 4671
- 0.15101 11 12 ack 40 ------- 0 11.600 5.1252 0 4678
- 0.151138 11 12 tcp 1540 ------- 0 11.1095 12.568 1 4684
r 0.151735 11 12 tcp 1540 ------- 0 2.949 12.395 3 3765
r 0.151863 11 12 tcp 40 ------- 0 11.1374 20.968 0 4522
r 0.151991 11 12 ack 40 ------- 0 11.735 14.255 1 4671
r 0.152119 11 12 ack 40 ------- 0 11.600 5.1252 0 4678
+ 0.155068 11 12 ack 40 ------- 0 11.701 12.270 7 4848
- 0.156066 11 12 tcp 1540 ------- 0 11.1095 12.568 2 4685
r 0.157047 11 12 tcp 1540 ------- 0 11.1095 12.568 1 4684
+ 0.159996 11 12 ack 40 ------- 0 11.701 12.270 8 5005
- 0.160994 11 12 tcp 1540 ------- 0 2.949 12.395 4 3766
r 0.161975 11 12 tcp 1540 ------- 0 11.1095 12.568 2 4685
+ 0.163786 11 12 tcp 40 ------- 0 11.1376 20.970 0 5179
+ 0.164924 11 12 ack 40 ------- 0 11.735 14.255 2 5207
+ 0.165538 11 12 tcp 1540 ------- 0 2.949 12.395 5 3769
+ 0.165895 11 12 tcp 40 ------- 0 11.1477 25.373 0 5259
- 0.165922 11 12 ack 40 ------- 0 11.701 12.270 7 4848
- 0.16605 11 12 ack 40 ------- 0 11.701 12.270 8 5005
- 0.166178 11 12 tcp 40 ------- 0 11.1376 20.970 0 5179
- 0.166306 11 12 ack 40 ------- 0 11.735 14.255 2 5207
- 0.166434 11 12 tcp 1540 ------- 0 2.949 12.395 5 3769
r 0.166903 11 12 tcp 1540 ------- 0 2.949 12.395 4 3766
r 0.167031 11 12 ack 40 ------- 0 11.701 12.270 7 4848
r 0.167159 11 12 ack 40 ------- 0 11.701 12.270 8 5005
r 0.167287 11 12 tcp 40 ------- 0 11.1376 20.970 0 5179
r 0.167415 11 12 ack 40 ------- 0 11.735 14.255 2 5207
+ 0.168114 11 12 tcp 40 ------- 0 11.1465 25.361 0 5339
+ 0.169397 11 12 tcp 40 ------- 0 11.1117 12.590 0 5389
+ 0.16998 11 12 ack 40 ------- 0 11.701 12.270 9 5413
+ 0.171106 11 12 ack 40 ------- 0 9.716 13.211 0 4331
- 0.171362 11 12 tcp 40 ------- 0 11.1477 25.373 0 5259
- 0.17149 11 12 tcp 40 ------- 0 11.1465 25.361 0 5339
- 0.171618 11 12 tcp 40 ------- 0 11.1117 12.590 0 5389
- 0.171746 11 12 ack 40 ------- 0 11.701 12.270 9 5413
- 0.171874 11 12 ack 40 ------- 0 9.716 13.211 0 4331
+ 0.172169 11 12 ack 40 ------- 0 10.483 13.291 0 5421
- 0.172169 11 12 ack 40 ------- 0 10.483 13.291 0 5421
r 0.172343 11 12 tcp 1540 ------- 0 2.949 12.395 5 3769
r 0.172471 11 12 tcp 40 ------- 0 11.1477 25.373 0 5259
r 0.172599 11 12 tcp 40 ------- 0 11.1465 25.361 0 5339
r 0.172727 11 12 tcp 40 ------- 0 11.1117 12.590 0 5389
r 0.172855 11 12 ack 40 ------- 0 11.701 12.270 9 5413
r 0.172983 11 12 ack 40 ------- 0 9.716 13.211 0 4331
r 0.173278 11 12 ack 40 ------- 0 10.483 13.291 0 5421
+ 0.174908 11 12 ack 40 ------- 0 11.701 12.270 10 5645
- 0.174908 11 12 ack 40 ------- 0 11.701 12.270 10 5645
r 0.176017 11 12 ack 40 ------- 0 11.701 12.270 10 5645
+ 0.179836 11 12 ack 40 ------- 0 11.701 12.270 11 5813
- 0.179836 11 12 ack 40 ------- 0 11.701 12.270 11 5813
r 0.180945 11 12 ack 40 ------- 0 11.701 12.270 11 5813
+ 0.183461 11 12 ack 40 ------- 0 18.581 12.1066 1 5704
- 0.183461 11 12 ack 40 ------- 0 18.581 12.1066 1 5704
r 0.18457 11 12 ack 40 ------- 0 18.581 12.1066 1 5704
+ 0.184764 11 12 ack 40 ------- 0 11.701 12.270 12 5962
- 0.184764 11 12 ack 40 ------- 0 11.701 12.270 12 5962
+ 0.184892 11 12 ack 40 ------- 0 11.715 14.235 0 5969
- 0.184892 11 12 ack 40 ------- 0 11.715 14.235 0 5969
r 0.185873 11 12 ack 40 ------- 0 11.701 12.270 12 5962
r 0.186001 11 12 ack 40 ------- 0 11.715 14.235 0 5969
+ 0.18982 11 12 ack 40 ------- 0 11.701 12.270 13 6140
- 0.18982 11 12 ack 40 ------- 0 11.701 12.270 13 6140
r 0.190929 11 12 ack 40 ------- 0 11.701 12.270 13 6140
+ 0.192807 11 12 ack 40 ------- 0 18.581 12.1066 2 6015
- 0.192807 11 12 ack 40 ------- 0 18.581 12.1066 2 6015
r 0.193916 11 12 ack 40 ------- 0 18.581 12.1066 2 6015
+ 0.194748 11 12 ack 40 ------- 0 11.701 12.270 14 6294
- 0.194748 11 12 ack 40 ------- 0 11.701 12.270 14 6294
r 0.195857 11 12 ack 40 ------- 0 11.701 12.270 14 6294
+ 0.199255 11 12 ack 40 ------- 0 18.569 12.1054 0 6230
- 0.199255 11 12 ack 40 ------- 0 18.569 12.1054 0 6230
+ 0.199676 11 12 ack 40 ------- 0 11.695 12.264 1 6501
- 0.199676 11 12 ack 40 ------- 0 11.695 12.264 1 6501
r 0.200364 11 12 ack 40 ------- 0 18.569 12.1054 0 6230
r 0.200785 11 12 ack 40 ------- 0 11.695 12.264 1 6501
+ 0.201347 11 12 tcp 40 ------- 0 11.268 5.588 0 6556
- 0.201347 11 12 tcp 40 ------- 0 11.268 5.588 0 6556
r 0.202455 11 12 tcp 40 ------- 0 11.268 5.588 0 6556
+ 0.204604 11 12 ack 40 ------- 0 11.695 12.264 2 6668
- 0.204604 11 12 ack 40 ------- 0 11.695 12.264 2 6668
r 0.205713 11 12 ack 40 ------- 0 11.695 12.264 2 6668
+ 0.205878 11 12 tcp 40 ------- 0 9.1056 12.470 0 5578
- 0.205878 11 12 tcp 40 ------- 0 9.1056 12.470 0 5578
+ 0.206134 11 12 tcp 40 ------- 0 9.1051 12.465 0 5776
- 0.206134 11 12 tcp 40 ------- 0 9.1051 12.465 0 5776
r 0.206987 11 12 tcp 40 ------- 0 9.1056 12.470 0 5578
r 0.207243 11 12 tcp 40 ------- 0 9.1051 12.465 0 5776
+ 0.207564 11 12 tcp 40 ------- 0 11.1144 13.764 0 6782
- 0.207564 11 12 tcp 40 ------- 0 11.1144 13.764 0 6782
+ 0.208252 11 12 tcp 40 ------- 0 11.285 5.605 0 6804
- 0.208252 11 12 tcp 40 ------- 0 11.285 5.605 0 6804
r 0.208673 11 12 tcp 40 ------- 0 11.1144 13.764 0 6782
r 0.209361 11 12 tcp 40 ------- 0 11.285 5.605 0 6804
+ 0.209916 11 12 ack 40 ------- 0 11.612 5.1264 0 6847
- 0.209916 11 12 ack 40 ------- 0 11.612 5.1264 0 6847
+ 0.2103 11 12 tcp 1540 ------- 0 11.1095 12.568 3 6857
- 0.2103 11 12 tcp 1540 ------- 0 11.1095 12.568 3 6857
+ 0.2103 11 12 tcp 1540 ------- 0 11.1095 12.568 4 6858
+ 0.210556 11 12 tcp 1540 ------- 0 11.1197 14.884 1 6873
+ 0.210556 11 12 tcp 1540 ------- 0 11.1197 14.884 2 6874
+ 0.210684 11 12 tcp 1540 ------- 0 11.169 4.423 3 6887
+ 0.210684 11 12 tcp 1540 ------- 0 11.169 4.423 4 6888
+ 0.210812 11 12 tcp 1540 ------- 0 11.1095 12.568 5 6892
+ 0.210812 11 12 tcp 1540 ------- 0 11.1095 12.568 6 6893
+ 0.210909 11 12 tcp 40 ------- 0 11.1033 12.506 0 6895
+ 0.21094 11 12 ack 40 ------- 0 11.610 5.1262 0 6899
r 0.211025 11 12 ack 40 ------- 0 11.612 5.1264 0 6847
+ 0.211068 11 12 ack 40 ------- 0 11.911 20.316 0 6905
d 0.211068 11 12 ack 40 ------- 0 11.911 20.316 0 6905
- 0.215228 11 12 tcp 1540 ------- 0 11.1095 12.568 4 6858
+ 0.216124 11 12 ack 40 ------- 0 11.701 12.270 15 7087
r 0.216209 11 12 tcp 1540 ------- 0 11.1095 12.568 3 6857
- 0.220156 11 12 tcp 1540 ------- 0 11.1197 14.884 1 6873
+ 0.221052 11 12 ack 40 ------- 0 11.701 12.270 16 7255
r 0.221137 11 12 tcp 1540 ------- 0 11.1095 12.568 4 6858
- 0.225084 11 12 tcp 1540 ------- 0 11.1197 14.884 2 6874
+ 0.22598 11 12 ack 40 ------- 0 11.701 12.270 17 7422
r 0.226065 11 12 tcp 1540 ------- 0 11.1197 14.884 1 6873
- 0.230012 11 12 tcp 1540 ------- 0 11.169 4.423 3 6887
+ 0.230908 11 12 ack 40 ------- 0 11.701 12.270 18 7615
r 0.230993 11 12 tcp 1540 ------- 0 11.1197 14.884 2 6874
+ 0.231036 11 12 ack 40 ------- 0 11.993 24.259 0 7621
d 0.231036 11 12 ack 40 ------- 0 11.993 24.259 0 7621
+ 0.23142 11 12 tcp 1540 ------- 0 11.1117 12.590 1 7632
d 0.23142 11 12 tcp 1540 ------- 0 11.1117 12.590 1 7632
+ 0.23142 11 12 tcp 1540 ------- 0 11.1117 12.590 2 7633
d 0.23142 11 12 tcp 1540 ------- 0 11.1117 12.590 2 7633
+ 0.231721 11 12 tcp 40 ------- 0 11.1047 12.520 0 7646
d 0.231721 11 12 tcp 40 ------- 0 11.1047 12.520 0 7646
- 0.23494 11 12 tcp 1540 ------- 0 11.169 4.423 4 6888
r 0.235921 11 12 tcp 1540 ------- 0 11.169 4.423 3 6887
+ 0.236348 11 12 ack 40 ------- 0 11.701 12.270 19 7798
- 0.239868 11 12 tcp 1540 ------- 0 11.1095 12.568 5 6892
r 0.240849 11 12 tcp 1540 ------- 0 11.169 4.423 4 6888
+ 0.241276 11 12 ack 40 ------- 0 11.701 12.270 20 7975
- 0.244796 11 12 tcp 1540 ------- 0 11.1095 12.568 6 6893
r 0.245777 11 12 tcp 1540 ------- 0 11.1095 12.568 5 6892
+ 0.246332 11 12 ack 40 ------- 0 11.701 12.270 21 8152
- 0.249724 11 12 tcp 40 ------- 0 11.1033 12.506 0 6895
- 0.249852 11 12 ack 40 ------- 0 11.610 5.1262 0 6899
- 0.24998 11 12 ack 40 ------- 0 11.701 12.270 15 7087
- 0.250108 11 12 ack 40 ------- 0 11.701 12.270 16 7255
- 0.250236 11 12 ack 40 ------- 0 11.701 12.270 17 7422
- 0.250364 11 12 ack 40 ------- 0 11.701 12.270 18 7615
- 0.250492 11 12 ack 40 ------- 0 11.701 12.270 19 7798
- 0.25062 11 12 ack 40 ------- 0 11.701 12.270 20 7975
r 0.250705 11 12 tcp 1540 ------- 0 11.1095 12.568 6 6893
- 0.250748 11 12 ack 40 ------- 0 11.701 12.270 21 8152
r 0.250833 11 12 tcp 40 ------- 0 11.1033 12.506 0 6895
r 0.250961 11 12 ack 40 ------- 0 11.610 5.1262 0 6899
r 0.251089 11 12 ack 40 ------- 0 11.701 12.270 15 7087
r 0.251217 11 12 ack 40 ------- 0 11.701 12.270 16 7255
+ 0.25126 11 12 ack 40 ------- 0 11.701 12.270 22 8335
- 0.25126 11 12 ack 40 ------- 0 11.701 12.270 22 8335
r 0.251345 11 12 ack 40 ------- 0 11.701 12.270 17 7422
r 0.251473 11 12 ack 40 ------- 0 11.701 12.270 18 7615
r 0.251601 11 12 ack 40 ------- 0 11.701 12.270 19 7798
r 0.251729 11 12 ack 40 ------- 0 11.701 12.270 20 7975
r 0.251857 11 12 ack 40 ------- 0 11.701 12.270 21 8152
r 0.252369 11 12 ack 40 ------- 0 11.701 12.270 22 8335
+ 0.256188 11 12 ack 40 ------- 0 11.735 14.255 3 8504
- 0.256188 11 12 ack 40 ------- 0 11.735 14.255 3 8504
r 0.257297 11 12 ack 40 ------- 0 11.735 14.255 3 8504
+ 0.261116 11 12 ack 40 ------- 0 11.701 12.270 23 8677
- 0.261116 11 12 ack 40 ------- 0 11.701 12.270 23 8677
r 0.262225 11 12 ack 40 ------- 0 11.701 12.270 23 8677
+ 0.266044 11 12 ack 40 ------- 0 11.701 12.270 24 8866
- 0.266044 11 12 ack 40 ------- 0 11.701 12.270 24 8866
r 0.267153 11 12 ack 40 ------- 0 11.701 12.270 24 8866
+ 0.270972 11 12 ack 40 ------- 0 11.735 14.255 4 9084
- 0.270972 11 12 ack 40 ------- 0 11.735 14.255 4 9084
+ 0.2711 11 12 ack 40 ------- 0 11.721 14.241 0 9090
- 0.2711 11 12 ack 40 ------- 0 11.721 14.241 0 9090
r 0.272081 11 12 ack 40 ------- 0 11.735 14.255 4 9084
r 0.272209 11 12 ack 40 ------- 0 11.721 14.241 0 9090
+ 0.274897 11 12 tcp 1540 ------- 0 10.809 13.753 1 8211
- 0.274897 11 12 tcp 1540 ------- 0 10.809 13.753 1 8211
r 0.280806 11 12 tcp 1540 ------- 0 10.809 13.753 1 8211
+ 0.280928 11 12 tcp 1540 ---A--- 0 11.1193 14.880 2 9522
- 0.280928 11 12 tcp 1540 ---A--- 0 11.1193 14.880 2 9522
+ 0.282364 11 12 tcp 40 ------- 0 11.1422 25.318 0 9579
+ 0.283117 11 12 tcp 40 ------- 0 11.1081 12.554 0 9620
+ 0.285137 11 12 ack 40 ------- 0 10.551 15.358 0 9003
+ 0.285184 11 12 tcp 40 ------- 0 11.277 5.597 0 9696
- 0.285856 11 12 tcp 40 ------- 0 11.1422 25.318 0 9579
+ 0.285884 11 12 ack 40 ------- 0 11.701 12.270 25 9733
- 0.285984 11 12 tcp 40 ------- 0 11.1081 12.554 0 9620
- 0.286112 11 12 ack 40 ------- 0 10.551 15.358 0 9003
- 0.28624 11 12 tcp 40 ------- 0 11.277 5.597 0 9696
- 0.286368 11 12 ack 40 ------- 0 11.701 12.270 25 9733
r 0.286837 11 12 tcp 1540 ---A--- 0 11.1193 14.880 2 9522
r 0.286965 11 12 tcp 40 ------- 0 11.1422 25.318 0 9579
r 0.287093 11 12 tcp 40 ------- 0 11.1081 12.554 0 9620
r 0.287221 11 12 ack 40 ------- 0 10.551 15.358 0 9003
r 0.287349 11 12 tcp 40 ------- 0 11.277 5.597 0 9696
r 0.287477 11 12 ack 40 ------- 0 11.701 12.270 25 9733
+ 0.289427 11 12 tcp 40 ------- 0 11.1058 12.531 0 9834
- 0.289427 11 12 tcp 40 ------- 0 11.1058 12.531 0 9834
+ 0.290193 11 12 tcp 1540 ------- 0 2.962 13.572 1 8922
- 0.290193 11 12 tcp 1540 ------- 0 2.962 13.572 1 8922
r 0.290536 11 12 tcp 40 ------- 0 11.1058 12.531 0 9834
+ 0.290812 11 12 ack 40 ------- 0 11.701 12.270 26 9888
+ 0.293458 11 12 tcp 40 ------- 0 11.1141 13.761 0 9991
+ 0.295121 11 12 tcp 1540 ------- 0 2.962 13.572 2 8923
- 0.295121 11 12 ack 40 ------- 0 11.701 12.270 26 9888
- 0.295249 11 12 tcp 40 ------- 0 11.1141 13.761 0 9991
- 0.295377 11 12 tcp 1540 ------- 0 2.962 13.572 2 8923
+ 0.29574 11 12 ack 40 ------- 0 11.701 12.270 27 10094
r 0.296102 11 12 tcp 1540 ------- 0 2.962 13.572 1 8922
r 0.29623 11 12 ack 40 ------- 0 11.701 12.270 26 9888
r 0.296358 11 12 tcp 40 ------- 0 11.1141 13.761 0 9991
+ 0.296564 11 12 tcp 40 ------- 0 11.279 5.599 0 10132
+ 0.296762 11 12 tcp 40 ------- 0 11.1092 12.565 0 10142
+ 0.300049 11 12 tcp 1540 ------- 0 2.949 12.395 9 8971
- 0.300305 11 12 ack 40 ------- 0 11.701 12.270 27 10094
- 0.300433 11 12 tcp 40 ------- 0 11.279 5.599 0 10132
- 0.300561 11 12 tcp 40 ------- 0 11.1092 12.565 0 10142
+ 0.300668 11 12 ack 40 ------- 0 11.701 12.270 28 10302
- 0.300689 11 12 tcp 1540 ------- 0 2.949 12.395 9 8971
r 0.301286 11 12 tcp 1540 ------- 0 2.962 13.572 2 8923
r 0.301414 11 12 ack 40 ------- 0 11.701 12.270 27 10094
r 0.301542 11 12 tcp 40 ------- 0 11.279 5.599 0 10132
r 0.30167 11 12 tcp 40 ------- 0 11.1092 12.565 0 10142
+ 0.304636 11 12 tcp 1540 ---A--- 0 11.1096 12.569 12 10476
+ 0.304977 11 12 tcp 1540 ------- 0 2.949 12.395 10 8972
+ 0.305489 11 12 tcp 40 ------- 0 16.373 12.677 0 6142
- 0.305617 11 12 ack 40 ------- 0 11.701 12.270 28 10302
+ 0.305617 11 12 ack 40 ------- 0 18.596 12.1081 0 8653
- 0.305745 11 12 tcp 1540 ---A--- 0 11.1096 12.569 12 10476
+ 0.305954 11 12 tcp 40 ------- 0 11.1166 14.853 0 10535
r 0.306598 11 12 tcp 1540 ------- 0 2.949 12.395 9 8971
r 0.306726 11 12 ack 40 ------- 0 11.701 12.270 28 10302
+ 0.309876 11 12 tcp 40 ------- 0 11.1410 24.776 0 10693
- 0.310673 11 12 tcp 1540 ------- 0 2.949 12.395 10 8972
r 0.311654 11 12 tcp 1540 ---A--- 0 11.1096 12.569 12 10476
+ 0.315452 11 12 ack 40 ------- 0 11.701 12.270 29 10916
- 0.315601 11 12 tcp 40 ------- 0 16.373 12.677 0 6142
- 0.315729 11 12 ack 40 ------- 0 18.596 12.1081 0 8653
- 0.315857 11 12 tcp 40 ------- 0 11.1166 14.853 0 10535
- 0.315985 11 12 tcp 40 ------- 0 11.1410 24.776 0 10693
- 0.316113 11 12 ack 40 ------- 0 11.701 12.270 29 10916
r 0.316582 11 12 tcp 1540 ------- 0 2.949 12.395 10 8972
r 0.31671 11 12 tcp 40 ------- 0 16.373 12.677 0 6142
r 0.316838 11 12 ack 40 ------- 0 18.596 12.1081 0 8653
r 0.316966 11 12 tcp 40 ------- 0 11.1166 14.853 0 10535
r 0.317094 11 12 tcp 40 ------- 0 11.1410 24.776 0 10693
r 0.317222 11 12 ack 40 ------- 0 11.701 12.270 29 10916
+ 0.317374 11 12 tcp 40 ------- 0 11.242 5.562 0 10986
- 0.317374 11 12 tcp 40 ------- 0 11.242 5.562 0 10986
r 0.318483 11 12 tcp 40 ------- 0 11.242 5.562 0 10986
+ 0.319114 11 12 tcp 40 ------- 0 11.214 5.534 0 11056
- 0.319114 11 12 tcp 40 ------- 0 11.214 5.534 0 11056
r 0.320223 11 12 tcp 40 ------- 0 11.214 5.534 0 11056
+ 0.32038 11 12 ack 40 ------- 0 11.701 12.270 30 11118
- 0.32038 11 12 ack 40 ------- 0 11.701 12.270 30 11118
+ 0.320508 11 12 ack 40 ------- 0 11.518 5.1170 0 11134
- 0.320508 11 12 ack 40 ------- 0 11.518 5.1170 0 11134
+ 0.320636 11 12 tcp 1540 ------- 0 11.174 4.428 1 11142
+ 0.320636 11 12 tcp 1540 ------- 0 11.174 4.428 2 11143
- 0.320636 11 12 tcp 1540 ------- 0 11.174 4.428 1 11142
r 0.321489 11 12 ack 40 ------- 0 11.701 12.270 30 11118
r 0.321617 11 12 ack 40 ------- 0 11.518 5.1170 0 11134
- 0.325564 11 12 tcp 1540 ------- 0 11.174 4.428 2 11143
r 0.326545 11 12 tcp 1540 ------- 0 11.174 4.428 1 11142
+ 0.329211 11 12 tcp 40 ------- 0 11.1112 12.585 0 11466
- 0.330492 11 12 tcp 40 ------- 0 11.1112 12.585 0 11466
+ 0.330769 11 12 tcp 1540 ------- 0 2.949 12.395 11 10394
- 0.330769 11 12 tcp 1540 ------- 0 2.949 12.395 11 10394
r 0.331473 11 12 tcp 1540 ------- 0 11.174 4.428 2 11143
r 0.331601 11 12 tcp 40 ------- 0 11.1112 12.585 0 11466
+ 0.335697 11 12 tcp 1540 ------- 0 2.949 12.395 12 10395
- 0.335697 11 12 tcp 1540 ------- 0 2.949 12.395 12 10395
+ 0.336465 11 12 tcp 40 ------- 0 18.185 13.944 0 9766
+ 0.336593 11 12 tcp 40 ------- 0 18.166 12.770 0 9823
r 0.336678 11 12 tcp 1540 ------- 0 2.949 12.395 11 10394
+ 0.338193 11 12 tcp 40 ------- 0 16.398 13.914 0 7449
+ 0.340092 11 12 tcp 1540 ---A--- 0 11.197 5.517 1 11919
+ 0.340348 11 12 ack 40 ------- 0 11.695 12.264 3 11925