+ 0.00017 0 2 rtProtoDV 26 ------- 0 0.1454 2.1272 -1 2
- 0.00017 0 2 rtProtoDV 26 ------- 0 0.1454 2.1272 -1 2
r 0.003055 0 2 rtProtoDV 26 ------- 0 0.1454 2.1272 -1 2
+ 0.003496 0 2 rtProtoDV 26 ------- 0 0.1454 2.1272 -1 47
- 0.003496 0 2 rtProtoDV 26 ------- 0 0.1454 2.1272 -1 47
+ 0.004328 0 2 rtProtoDV 26 ------- 0 0.1454 2.1272 -1 64
- 0.004328 0 2 rtProtoDV 26 ------- 0 0.1454 2.1272 -1 64
+ 0.00512 0 2 rtProtoDV 26 ------- 0 0.1454 2.1272 -1 85
- 0.00512 0 2 rtProtoDV 26 ------- 0 0.1454 2.1272 -1 85
+ 0.005689 0 2 rtProtoDV 26 ------- 0 0.1454 2.1272 -1 111
- 0.005689 0 2 rtProtoDV 26 ------- 0 0.1454 2.1272 -1 111
+ 0.005941 0 2 rtProtoDV 26 ------- 0 0.1454 2.1272 -1 117
- 0.005941 0 2 rtProtoDV 26 ------- 0 0.1454 2.1272 -1 117
r 0.006382 0 2 rtProtoDV 26 ------- 0 0.1454 2.1272 -1 47
r 0.007214 0 2 rtProtoDV 26 ------- 0 0.1454 2.1272 -1 64
r 0.008006 0 2 rtProtoDV 26 ------- 0 0.1454 2.1272 -1 85
+ 0.00816 0 2 rtProtoDV 26 ------- 0 0.1454 2.1272 -1 214
- 0.00816 0 2 rtProtoDV 26 ------- 0 0.1454 2.1272 -1 214
r 0.008575 0 2 rtProtoDV 26 ------- 0 0.1454 2.1272 -1 111
r 0.008826 0 2 rtProtoDV 26 ------- 0 0.1454 2.1272 -1 117
+ 0.010912 0 2 rtProtoDV 26 ------- 0 0.1454 2.1272 -1 354
- 0.010912 0 2 rtProtoDV 26 ------- 0 0.1454 2.1272 -1 354
r 0.011045 0 2 rtProtoDV 26 ------- 0 0.1454 2.1272 -1 214
+ 0.013577 0 2 tcp 40 ------- 0 0.870 9.442 0 496
- 0.013577 0 2 tcp 40 ------- 0 0.870 9.442 0 496
r 0.013798 0 2 rtProtoDV 26 ------- 0 0.1454 2.1272 -1 354
+ 0.014544 0 2 rtProtoDV 26 ------- 0 0.1454 2.1272 -1 541
- 0.014544 0 2 rtProtoDV 26 ------- 0 0.1454 2.1272 -1 541
+ 0.014807 0 2 rtProtoDV 26 ------- 0 0.1454 2.1272 -1 553
- 0.014807 0 2 rtProtoDV 26 ------- 0 0.1454 2.1272 -1 553
+ 0.015995 0 2 ack 40 ------- 0 4.378 10.112 0 492
- 0.015995 0 2 ack 40 ------- 0 4.378 10.112 0 492
r 0.016474 0 2 tcp 40 ------- 0 0.870 9.442 0 496
+ 0.016672 0 2 rtProtoDV 26 ------- 0 0.1454 2.1272 -1 619
- 0.016672 0 2 rtProtoDV 26 ------- 0 0.1454 2.1272 -1 619
+ 0.017059 0 2 rtProtoDV 26 ------- 0 0.1454 2.1272 -1 641
- 0.017059 0 2 rtProtoDV 26 ------- 0 0.1454 2.1272 -1 641
r 0.017429 0 2 rtProtoDV 26 ------- 0 0.1454 2.1272 -1 541
r 0.017693 0 2 rtProtoDV 26 ------- 0 0.1454 2.1272 -1 553
+ 0.018312 0 2 ack 40 ------- 0 0.101 2.17 0 690
- 0.018312 0 2 ack 40 ------- 0 0.101 2.17 0 690
r 0.018891 0 2 ack 40 ------- 0 4.378 10.112 0 492
r 0.019557 0 2 rtProtoDV 26 ------- 0 0.1454 2.1272 -1 619
r 0.019944 0 2 rtProtoDV 26 ------- 0 0.1454 2.1272 -1 641
+ 0.02016 0 2 ack 40 ------- 0 19.722 2.1185 0 532
- 0.02016 0 2 ack 40 ------- 0 19.722 2.1185 0 532
r 0.021209 0 2 ack 40 ------- 0 0.101 2.17 0 690
r 0.023057 0 2 ack 40 ------- 0 19.722 2.1185 0 532
+ 0.025079 0 2 tcp 40 ------- 0 5.1151 10.388 0 779
- 0.025079 0 2 tcp 40 ------- 0 5.1151 10.388 0 779
+ 0.025306 0 2 ack 40 ------- 0 0.101 2.17 1 882
- 0.025306 0 2 ack 40 ------- 0 0.101 2.17 1 882
+ 0.026538 0 2 ack 40 ------- 0 0.101 2.17 2 905
- 0.026538 0 2 ack 40 ------- 0 0.101 2.17 2 905
+ 0.026602 0 2 ack 40 ------- 0 0.214 11.6 0 910
- 0.026602 0 2 ack 40 ------- 0 0.214 11.6 0 910
r 0.027976 0 2 tcp 40 ------- 0 5.1151 10.388 0 779
r 0.028202 0 2 ack 40 ------- 0 0.101 2.17 1 882
r 0.029434 0 2 ack 40 ------- 0 0.101 2.17 2 905
r 0.029498 0 2 ack 40 ------- 0 0.214 11.6 0 910
+ 0.029973 0 2 tcp 40 ------- 0 19.273 11.836 0 750
- 0.029973 0 2 tcp 40 ------- 0 19.273 11.836 0 750
+ 0.031594 0 2 tcp 1540 ------- 0 0.870 9.442 1 1035
- 0.031594 0 2 tcp 1540 ------- 0 0.870 9.442 1 1035
+ 0.031594 0 2 tcp 1540 ------- 0 0.870 9.442 2 1036
- 0.032826 0 2 tcp 1540 ------- 0 0.870 9.442 2 1036
+ 0.032858 0 2 ack 40 ------- 0 0.101 2.17 3 1062
r 0.03287 0 2 tcp 40 ------- 0 19.273 11.836 0 750
+ 0.033844 0 2 ack 40 ------- 0 15.785 2.1067 0 874
- 0.034058 0 2 ack 40 ------- 0 0.101 2.17 3 1062
- 0.03409 0 2 ack 40 ------- 0 15.785 2.1067 0 874
+ 0.03409 0 2 ack 40 ------- 0 0.101 2.17 4 1089
- 0.034122 0 2 ack 40 ------- 0 0.101 2.17 4 1089
+ 0.035386 0 2 ack 40 ------- 0 0.101 2.17 5 1119
- 0.035386 0 2 ack 40 ------- 0 0.101 2.17 5 1119
+ 0.035559 0 2 tcp 40 ------- 0 1.1287 11.387 0 878
- 0.035559 0 2 tcp 40 ------- 0 1.1287 11.387 0 878
r 0.03569 0 2 tcp 1540 ------- 0 0.870 9.442 1 1035
+ 0.036171 0 2 tcp 40 ------- 0 21.277 9.959 0 912
- 0.036171 0 2 tcp 40 ------- 0 21.277 9.959 0 912
+ 0.036503 0 2 ack 40 ------- 0 4.378 10.112 1 1085
- 0.036503 0 2 ack 40 ------- 0 4.378 10.112 1 1085
+ 0.036618 0 2 ack 40 ------- 0 0.101 2.17 6 1147
- 0.036618 0 2 ack 40 ------- 0 0.101 2.17 6 1147
+ 0.036746 0 2 tcp 40 ------- 0 21.261 9.943 0 925
- 0.036746 0 2 tcp 40 ------- 0 21.261 9.943 0 925
r 0.036922 0 2 tcp 1540 ------- 0 0.870 9.442 2 1036
r 0.036954 0 2 ack 40 ------- 0 0.101 2.17 3 1062
r 0.036986 0 2 ack 40 ------- 0 15.785 2.1067 0 874
+ 0.037015 0 2 ack 40 ------- 0 21.726 10.1040 0 928
- 0.037015 0 2 ack 40 ------- 0 21.726 10.1040 0 928
r 0.037018 0 2 ack 40 ------- 0 0.101 2.17 4 1089
+ 0.037767 0 2 ack 40 ------- 0 4.378 10.112 2 1116
- 0.037767 0 2 ack 40 ------- 0 4.378 10.112 2 1116
r 0.038282 0 2 ack 40 ------- 0 0.101 2.17 5 1119
r 0.038456 0 2 tcp 40 ------- 0 1.1287 11.387 0 878
r 0.039068 0 2 tcp 40 ------- 0 21.277 9.959 0 912
r 0.0394 0 2 ack 40 ------- 0 4.378 10.112 1 1085
r 0.039514 0 2 ack 40 ------- 0 0.101 2.17 6 1147
r 0.039643 0 2 tcp 40 ------- 0 21.261 9.943 0 925
r 0.039912 0 2 ack 40 ------- 0 21.726 10.1040 0 928
r 0.040664 0 2 ack 40 ------- 0 4.378 10.112 2 1116
+ 0.041051 0 2 ack 40 ------- 0 0.101 2.17 7 1253
- 0.041051 0 2 ack 40 ------- 0 0.101 2.17 7 1253
+ 0.04128 0 2 tcp 40 ------- 0 19.93 2.595 0 945
- 0.04128 0 2 tcp 40 ------- 0 19.93 2.595 0 945
+ 0.042283 0 2 ack 40 ------- 0 0.101 2.17 8 1284
- 0.042283 0 2 ack 40 ------- 0 0.101 2.17 8 1284
r 0.043948 0 2 ack 40 ------- 0 0.101 2.17 7 1253
r 0.044177 0 2 tcp 40 ------- 0 19.93 2.595 0 945
r 0.04518 0 2 ack 40 ------- 0 0.101 2.17 8 1284
+ 0.045562 0 2 ack 40 ------- 0 4.380 10.114 0 1303
- 0.045562 0 2 ack 40 ------- 0 4.380 10.114 0 1303
+ 0.045979 0 2 ack 40 ------- 0 0.101 2.17 9 1383
- 0.045979 0 2 ack 40 ------- 0 0.101 2.17 9 1383
+ 0.047211 0 2 ack 40 ------- 0 0.101 2.17 10 1411
- 0.047211 0 2 ack 40 ------- 0 0.101 2.17 10 1411
+ 0.048443 0 2 ack 40 ------- 0 0.101 2.17 11 1439
- 0.048443 0 2 ack 40 ------- 0 0.101 2.17 11 1439
r 0.048458 0 2 ack 40 ------- 0 4.380 10.114 0 1303
r 0.048876 0 2 ack 40 ------- 0 0.101 2.17 9 1383
+ 0.049329 0 2 ack 40 ------- 0 3.121 2.733 0 1306
- 0.049329 0 2 ack 40 ------- 0 3.121 2.733 0 1306
+ 0.049675 0 2 ack 40 ------- 0 0.101 2.17 12 1474
- 0.049675 0 2 ack 40 ------- 0 0.101 2.17 12 1474
r 0.050108 0 2 ack 40 ------- 0 0.101 2.17 10 1411
+ 0.050691 0 2 tcp 40 ------- 0 3.1026 9.604 0 1343
- 0.050691 0 2 tcp 40 ------- 0 3.1026 9.604 0 1343
+ 0.050907 0 2 ack 40 ------- 0 0.101 2.17 13 1503
- 0.050907 0 2 ack 40 ------- 0 0.101 2.17 13 1503
r 0.05134 0 2 ack 40 ------- 0 0.101 2.17 11 1439
+ 0.052139 0 2 ack 40 ------- 0 0.101 2.17 14 1536
- 0.052139 0 2 ack 40 ------- 0 0.101 2.17 14 1536
r 0.052226 0 2 ack 40 ------- 0 3.121 2.733 0 1306
+ 0.052359 0 2 ack 40 ------- 0 3.337 9.242 0 1384
- 0.052359 0 2 ack 40 ------- 0 3.337 9.242 0 1384
+ 0.052504 0 2 tcp 40 ------- 0 0.884 10.210 0 1551
- 0.052504 0 2 tcp 40 ------- 0 0.884 10.210 0 1551
r 0.052572 0 2 ack 40 ------- 0 0.101 2.17 12 1474
+ 0.052986 0 2 tcp 1540 ------- 0 5.1151 10.388 1 1249
- 0.052986 0 2 tcp 1540 ------- 0 5.1151 10.388 1 1249
+ 0.053403 0 2 ack 40 ------- 0 0.101 2.17 15 1574
r 0.053587 0 2 tcp 40 ------- 0 3.1026 9.604 0 1343
r 0.053804 0 2 ack 40 ------- 0 0.101 2.17 13 1503
- 0.054218 0 2 ack 40 ------- 0 0.101 2.17 15 1574
+ 0.05425 0 2 tcp 1540 ------- 0 5.1151 10.388 2 1250
- 0.05425 0 2 tcp 1540 ------- 0 5.1151 10.388 2 1250
+ 0.054282 0 2 ack 40 ------- 0 15.707 2.989 0 1268
+ 0.054346 0 2 ack 40 ------- 0 15.762 2.1044 0 1330
+ 0.054635 0 2 ack 40 ------- 0 0.101 2.17 16 1600
r 0.055036 0 2 ack 40 ------- 0 0.101 2.17 14 1536
r 0.055255 0 2 ack 40 ------- 0 3.337 9.242 0 1384
+ 0.055362 0 2 tcp 40 ------- 0 3.998 9.576 0 1458
r 0.0554 0 2 tcp 40 ------- 0 0.884 10.210 0 1551
- 0.055482 0 2 ack 40 ------- 0 15.707 2.989 0 1268
- 0.055514 0 2 ack 40 ------- 0 15.762 2.1044 0 1330
- 0.055546 0 2 ack 40 ------- 0 0.101 2.17 16 1600
- 0.055578 0 2 tcp 40 ------- 0 3.998 9.576 0 1458
+ 0.055899 0 2 ack 40 ------- 0 0.101 2.17 17 1637
- 0.055899 0 2 ack 40 ------- 0 0.101 2.17 17 1637
r 0.057082 0 2 tcp 1540 ------- 0 5.1151 10.388 1 1249
r 0.057114 0 2 ack 40 ------- 0 0.101 2.17 15 1574
+ 0.057131 0 2 ack 40 ------- 0 0.101 2.17 18 1672
- 0.057131 0 2 ack 40 ------- 0 0.101 2.17 18 1672
+ 0.057331 0 2 tcp 40 ------- 0 3.997 9.575 0 1507
- 0.057331 0 2 tcp 40 ------- 0 3.997 9.575 0 1507
+ 0.057895 0 2 tcp 40 ------- 0 1.1293 11.393 0 1065
- 0.057895 0 2 tcp 40 ------- 0 1.1293 11.393 0 1065
r 0.058346 0 2 tcp 1540 ------- 0 5.1151 10.388 2 1250
r 0.058378 0 2 ack 40 ------- 0 15.707 2.989 0 1268
r 0.05841 0 2 ack 40 ------- 0 15.762 2.1044 0 1330
r 0.058442 0 2 ack 40 ------- 0 0.101 2.17 16 1600
r 0.058474 0 2 tcp 40 ------- 0 3.998 9.576 0 1458
r 0.058796 0 2 ack 40 ------- 0 0.101 2.17 17 1637
+ 0.059785 0 2 tcp 40 ------- 0 21.108 2.648 0 1427
- 0.059785 0 2 tcp 40 ------- 0 21.108 2.648 0 1427
r 0.060028 0 2 ack 40 ------- 0 0.101 2.17 18 1672
r 0.060228 0 2 tcp 40 ------- 0 3.997 9.575 0 1507
r 0.060792 0 2 tcp 40 ------- 0 1.1293 11.393 0 1065
+ 0.061866 0 2 tcp 40 ------- 0 5.1145 10.382 0 1387
- 0.061866 0 2 tcp 40 ------- 0 5.1145 10.382 0 1387
+ 0.061898 0 2 tcp 40 ------- 0 4.910 10.285 0 1562
- 0.061898 0 2 tcp 40 ------- 0 4.910 10.285 0 1562
+ 0.062059 0 2 ack 40 ------- 0 0.101 2.17 19 1812
- 0.062059 0 2 ack 40 ------- 0 0.101 2.17 19 1812
r 0.062682 0 2 tcp 40 ------- 0 21.108 2.648 0 1427
+ 0.063291 0 2 ack 40 ------- 0 0.101 2.17 20 1843
- 0.063291 0 2 ack 40 ------- 0 0.101 2.17 20 1843
r 0.064762 0 2 tcp 40 ------- 0 5.1145 10.382 0 1387
r 0.064794 0 2 tcp 40 ------- 0 4.910 10.285 0 1562
r 0.064956 0 2 ack 40 ------- 0 0.101 2.17 19 1812
+ 0.065755 0 2 ack 40 ------- 0 0.101 2.17 21 1917
- 0.065755 0 2 ack 40 ------- 0 0.101 2.17 21 1917
r 0.066188 0 2 ack 40 ------- 0 0.101 2.17 20 1843
+ 0.066987 0 2 ack 40 ------- 0 0.101 2.17 22 1938
- 0.066987 0 2 ack 40 ------- 0 0.101 2.17 22 1938
+ 0.068282 0 2 ack 40 ------- 0 15.785 2.1067 1 1604
- 0.068282 0 2 ack 40 ------- 0 15.785 2.1067 1 1604
+ 0.06832 0 2 tcp 40 ------- 0 3.1073 11.468 0 1809
- 0.06832 0 2 tcp 40 ------- 0 3.1073 11.468 0 1809
r 0.068652 0 2 ack 40 ------- 0 0.101 2.17 21 1917
+ 0.069451 0 2 ack 40 ------- 0 0.101 2.17 23 2026
- 0.069451 0 2 ack 40 ------- 0 0.101 2.17 23 2026
+ 0.069546 0 2 tcp 40 ------- 0 5.39 2.148 0 1514
- 0.069546 0 2 tcp 40 ------- 0 5.39 2.148 0 1514
r 0.069884 0 2 ack 40 ------- 0 0.101 2.17 22 1938
+ 0.070683 0 2 ack 40 ------- 0 0.101 2.17 24 2062
- 0.070683 0 2 ack 40 ------- 0 0.101 2.17 24 2062
+ 0.070938 0 2 ack 40 ------- 0 4.378 10.112 3 1811
- 0.070938 0 2 ack 40 ------- 0 4.378 10.112 3 1811
+ 0.07097 0 2 tcp 40 ------- 0 14.49 2.462 0 1342
- 0.07097 0 2 tcp 40 ------- 0 14.49 2.462 0 1342
r 0.071178 0 2 ack 40 ------- 0 15.785 2.1067 1 1604
r 0.071217 0 2 tcp 40 ------- 0 3.1073 11.468 0 1809
+ 0.072234 0 2 ack 40 ------- 0 15.785 2.1067 2 1713
- 0.072234 0 2 ack 40 ------- 0 15.785 2.1067 2 1713
+ 0.072266 0 2 ack 40 ------- 0 4.378 10.112 4 1842
- 0.072266 0 2 ack 40 ------- 0 4.378 10.112 4 1842
r 0.072348 0 2 ack 40 ------- 0 0.101 2.17 23 2026
r 0.072442 0 2 tcp 40 ------- 0 5.39 2.148 0 1514
r 0.07358 0 2 ack 40 ------- 0 0.101 2.17 24 2062
r 0.073834 0 2 ack 40 ------- 0 4.378 10.112 3 1811
r 0.073866 0 2 tcp 40 ------- 0 14.49 2.462 0 1342
r 0.07513 0 2 ack 40 ------- 0 15.785 2.1067 2 1713
r 0.075162 0 2 ack 40 ------- 0 4.378 10.112 4 1842
+ 0.075335 0 2 tcp 40 ------- 0 6.101 2.256 0 1050
- 0.075335 0 2 tcp 40 ------- 0 6.101 2.256 0 1050
+ 0.075611 0 2 ack 40 ------- 0 0.101 2.17 25 2235
- 0.075611 0 2 ack 40 ------- 0 0.101 2.17 25 2235
+ 0.076843 0 2 ack 40 ------- 0 0.101 2.17 26 2270
- 0.076843 0 2 ack 40 ------- 0 0.101 2.17 26 2270
+ 0.076875 0 2 tcp 1540 ------- 0 0.870 9.442 3 2273
+ 0.076875 0 2 tcp 1540 ------- 0 0.870 9.442 4 2274
- 0.076875 0 2 tcp 1540 ------- 0 0.870 9.442 3 2273
+ 0.077916 0 2 tcp 40 ------- 0 0.916 10.242 0 2313
- 0.078107 0 2 tcp 1540 ------- 0 0.870 9.442 4 2274
+ 0.078139 0 2 ack 40 ------- 0 0.101 2.17 27 2318
r 0.078232 0 2 tcp 40 ------- 0 6.101 2.256 0 1050
+ 0.078319 0 2 tcp 40 ------- 0 19.320 11.883 0 2199
r 0.078508 0 2 ack 40 ------- 0 0.101 2.17 25 2235
- 0.079339 0 2 tcp 40 ------- 0 0.916 10.242 0 2313
+ 0.079371 0 2 ack 40 ------- 0 0.101 2.17 28 2370
- 0.079371 0 2 ack 40 ------- 0 0.101 2.17 27 2318
- 0.079403 0 2 tcp 40 ------- 0 19.320 11.883 0 2199
- 0.079435 0 2 ack 40 ------- 0 0.101 2.17 28 2370
r 0.07974 0 2 ack 40 ------- 0 0.101 2.17 26 2270
r 0.080972 0 2 tcp 1540 ------- 0 0.870 9.442 3 2273
+ 0.081835 0 2 ack 40 ------- 0 0.101 2.17 29 2453
- 0.081835 0 2 ack 40 ------- 0 0.101 2.17 29 2453
+ 0.082003 0 2 tcp 40 ------- 0 19.66 2.568 0 2319
- 0.082003 0 2 tcp 40 ------- 0 19.66 2.568 0 2319
r 0.082204 0 2 tcp 1540 ------- 0 0.870 9.442 4 2274
r 0.082236 0 2 tcp 40 ------- 0 0.916 10.242 0 2313
r 0.082268 0 2 ack 40 ------- 0 0.101 2.17 27 2318
r 0.0823 0 2 tcp 40 ------- 0 19.320 11.883 0 2199
r 0.082332 0 2 ack 40 ------- 0 0.101 2.17 28 2370
+ 0.083067 0 2 ack 40 ------- 0 0.101 2.17 30 2495
- 0.083067 0 2 ack 40 ------- 0 0.101 2.17 30 2495
+ 0.084714 0 2 tcp 40 ------- 0 4.963 10.338 0 2002
- 0.084714 0 2 tcp 40 ------- 0 4.963 10.338 0 2002
r 0.084732 0 2 ack 40 ------- 0 0.101 2.17 29 2453
r 0.084899 0 2 tcp 40 ------- 0 19.66 2.568 0 2319
+ 0.085531 0 2 ack 40 ------- 0 0.214 11.6 1 2573
- 0.085531 0 2 ack 40 ------- 0 0.214 11.6 1 2573
r 0.085964 0 2 ack 40 ------- 0 0.101 2.17 30 2495
+ 0.086763 0 2 ack 40 ------- 0 0.101 2.17 31 2619
- 0.086763 0 2 ack 40 ------- 0 0.101 2.17 31 2619
r 0.08761 0 2 tcp 40 ------- 0 4.963 10.338 0 2002
+ 0.087995 0 2 ack 40 ------- 0 0.101 2.17 32 2661
- 0.087995 0 2 ack 40 ------- 0 0.101 2.17 32 2661
+ 0.088027 0 2 tcp 1540 ------- 0 0.870 9.442 5 2662
+ 0.088027 0 2 tcp 1540 ------- 0 0.870 9.442 6 2663
- 0.088027 0 2 tcp 1540 ------- 0 0.870 9.442 5 2662
r 0.088428 0 2 ack 40 ------- 0 0.214 11.6 1 2573
+ 0.089015 0 2 ack 40 ------- 0 1.460 10.64 0 1595
- 0.089259 0 2 tcp 1540 ------- 0 0.870 9.442 6 2663
r 0.08966 0 2 ack 40 ------- 0 0.101 2.17 31 2619
- 0.090491 0 2 ack 40 ------- 0 1.460 10.64 0 1595
r 0.090892 0 2 ack 40 ------- 0 0.101 2.17 32 2661
r 0.092124 0 2 tcp 1540 ------- 0 0.870 9.442 5 2662
+ 0.09244 0 2 ack 40 ------- 0 3.121 2.733 1 2600
- 0.09244 0 2 ack 40 ------- 0 3.121 2.733 1 2600
r 0.093356 0 2 tcp 1540 ------- 0 0.870 9.442 6 2663
r 0.093388 0 2 ack 40 ------- 0 1.460 10.64 0 1595
+ 0.093402 0 2 ack 40 ------- 0 4.378 10.112 5 2116
- 0.093402 0 2 ack 40 ------- 0 4.378 10.112 5 2116
+ 0.093672 0 2 ack 40 ------- 0 3.121 2.733 2 2633
- 0.093672 0 2 ack 40 ------- 0 3.121 2.733 2 2633
+ 0.094187 0 2 ack 40 ------- 0 0.101 2.17 33 2850
- 0.094187 0 2 ack 40 ------- 0 0.101 2.17 33 2850
r 0.095336 0 2 ack 40 ------- 0 3.121 2.733 1 2600
+ 0.095419 0 2 ack 40 ------- 0 0.101 2.17 34 2883
- 0.095419 0 2 ack 40 ------- 0 0.101 2.17 34 2883
+ 0.095962 0 2 tcp 40 ------- 0 5.88 2.197 0 2064
- 0.095962 0 2 tcp 40 ------- 0 5.88 2.197 0 2064
r 0.096298 0 2 ack 40 ------- 0 4.378 10.112 5 2116
r 0.096568 0 2 ack 40 ------- 0 3.121 2.733 2 2633
+ 0.096683 0 2 ack 40 ------- 0 0.101 2.17 35 2922
- 0.096683 0 2 ack 40 ------- 0 0.101 2.17 35 2922
r 0.097084 0 2 ack 40 ------- 0 0.101 2.17 33 2850
+ 0.097226 0 2 ack 40 ------- 0 4.378 10.112 6 2234
- 0.097226 0 2 ack 40 ------- 0 4.378 10.112 6 2234
+ 0.097915 0 2 ack 40 ------- 0 0.101 2.17 36 2980
- 0.097915 0 2 ack 40 ------- 0 0.101 2.17 36 2980
+ 0.097947 0 2 ack 40 ------- 0 0.95 2.11 0 2984
- 0.097947 0 2 ack 40 ------- 0 0.95 2.11 0 2984
r 0.098316 0 2 ack 40 ------- 0 0.101 2.17 34 2883
r 0.098858 0 2 tcp 40 ------- 0 5.88 2.197 0 2064
+ 0.098889 0 2 tcp 40 ------- 0 19.99 2.601 0 2871
- 0.098889 0 2 tcp 40 ------- 0 19.99 2.601 0 2871
+ 0.099179 0 2 ack 40 ------- 0 0.101 2.17 37 3018
- 0.099179 0 2 ack 40 ------- 0 0.101 2.17 37 3018
r 0.09958 0 2 ack 40 ------- 0 0.101 2.17 35 2922
r 0.100122 0 2 ack 40 ------- 0 4.378 10.112 6 2234
+ 0.100411 0 2 ack 40 ------- 0 0.101 2.17 38 3058
- 0.100411 0 2 ack 40 ------- 0 0.101 2.17 38 3058
r 0.100812 0 2 ack 40 ------- 0 0.101 2.17 36 2980
r 0.100844 0 2 ack 40 ------- 0 0.95 2.11 0 2984
+ 0.101643 0 2 ack 40 ------- 0 0.214 11.6 2 3112
- 0.101643 0 2 ack 40 ------- 0 0.214 11.6 2 3112
+ 0.101771 0 2 tcp 1540 ------- 0 0.884 10.210 1 3118
- 0.101771 0 2 tcp 1540 ------- 0 0.884 10.210 1 3118
+ 0.101771 0 2 tcp 1540 ------- 0 0.884 10.210 2 3119
r 0.101785 0 2 tcp 40 ------- 0 19.99 2.601 0 2871
r 0.102076 0 2 ack 40 ------- 0 0.101 2.17 37 3018
- 0.103003 0 2 tcp 1540 ------- 0 0.884 10.210 2 3119
+ 0.103067 0 2 ack 40 ------- 0 0.101 2.17 39 3161
r 0.103308 0 2 ack 40 ------- 0 0.101 2.17 38 3058
+ 0.10377 0 2 ack 40 ------- 0 4.331 9.251 0 2372
- 0.104235 0 2 ack 40 ------- 0 0.101 2.17 39 3161
- 0.104267 0 2 ack 40 ------- 0 4.331 9.251 0 2372
+ 0.104299 0 2 ack 40 ------- 0 0.101 2.17 40 3210
- 0.104299 0 2 ack 40 ------- 0 0.101 2.17 40 3210
r 0.10454 0 2 ack 40 ------- 0 0.214 11.6 2 3112
+ 0.105563 0 2 ack 40 ------- 0 0.101 2.17 41 3250
- 0.105563 0 2 ack 40 ------- 0 0.101 2.17 41 3250
r 0.105868 0 2 tcp 1540 ------- 0 0.884 10.210 1 3118
+ 0.106795 0 2 ack 40 ------- 0 0.101 2.17 42 3282
- 0.106795 0 2 ack 40 ------- 0 0.101 2.17 42 3282
r 0.1071 0 2 tcp 1540 ------- 0 0.884 10.210 2 3119
r 0.107132 0 2 ack 40 ------- 0 0.101 2.17 39 3161
r 0.107164 0 2 ack 40 ------- 0 4.331 9.251 0 2372
r 0.107196 0 2 ack 40 ------- 0 0.101 2.17 40 3210
r 0.10846 0 2 ack 40 ------- 0 0.101 2.17 41 3250
r 0.109692 0 2 ack 40 ------- 0 0.101 2.17 42 3282
+ 0.110491 0 2 ack 40 ------- 0 0.101 2.17 43 3394
- 0.110491 0 2 ack 40 ------- 0 0.101 2.17 43 3394
+ 0.111386 0 2 ack 40 ------- 0 4.380 10.114 1 2564
- 0.111386 0 2 ack 40 ------- 0 4.380 10.114 1 2564
+ 0.111819 0 2 ack 40 ------- 0 0.101 2.17 44 3447
- 0.111819 0 2 ack 40 ------- 0 0.101 2.17 44 3447
r 0.113388 0 2 ack 40 ------- 0 0.101 2.17 43 3394
r 0.114282 0 2 ack 40 ------- 0 4.380 10.114 1 2564
r 0.114716 0 2 ack 40 ------- 0 0.101 2.17 44 3447
+ 0.116378 0 2 ack 40 ------- 0 4.380 10.114 2 2660
- 0.116378 0 2 ack 40 ------- 0 4.380 10.114 2 2660
+ 0.116843 0 2 ack 40 ------- 0 0.101 2.17 45 3578
- 0.116843 0 2 ack 40 ------- 0 0.101 2.17 45 3578
+ 0.118075 0 2 ack 40 ------- 0 0.101 2.17 46 3604
- 0.118075 0 2 ack 40 ------- 0 0.101 2.17 46 3604
+ 0.118533 0 2 ack 40 ------- 0 21.726 10.1040 1 2343
- 0.118533 0 2 ack 40 ------- 0 21.726 10.1040 1 2343
+ 0.118565 0 2 ack 40 ------- 0 21.726 10.1040 2 2514
- 0.118565 0 2 ack 40 ------- 0 21.726 10.1040 2 2514
+ 0.118661 0 2 tcp 40 ------- 0 3.1071 11.466 0 3445
- 0.118661 0 2 tcp 40 ------- 0 3.1071 11.466 0 3445
+ 0.118906 0 2 tcp 40 ------- 0 5.64 2.173 0 2338
- 0.118906 0 2 tcp 40 ------- 0 5.64 2.173 0 2338
+ 0.118987 0 2 tcp 40 ------- 0 0.841 9.413 0 3632
- 0.118987 0 2 tcp 40 ------- 0 0.841 9.413 0 3632
r 0.119274 0 2 ack 40 ------- 0 4.380 10.114 2 2660
+ 0.119307 0 2 ack 40 ------- 0 0.101 2.17 47 3640
- 0.119307 0 2 ack 40 ------- 0 0.101 2.17 47 3640
r 0.11974 0 2 ack 40 ------- 0 0.101 2.17 45 3578
+ 0.120539 0 2 ack 40 ------- 0 0.101 2.17 48 3683
- 0.120539 0 2 ack 40 ------- 0 0.101 2.17 48 3683
r 0.120972 0 2 ack 40 ------- 0 0.101 2.17 46 3604
r 0.12143 0 2 ack 40 ------- 0 21.726 10.1040 1 2343
r 0.121462 0 2 ack 40 ------- 0 21.726 10.1040 2 2514
r 0.121558 0 2 tcp 40 ------- 0 3.1071 11.466 0 3445
r 0.121802 0 2 tcp 40 ------- 0 5.64 2.173 0 2338
+ 0.121835 0 2 ack 40 ------- 0 0.101 2.17 49 3733
- 0.121835 0 2 ack 40 ------- 0 0.101 2.17 49 3733
r 0.121884 0 2 tcp 40 ------- 0 0.841 9.413 0 3632
r 0.122204 0 2 ack 40 ------- 0 0.101 2.17 47 3640
+ 0.122634 0 2 tcp 40 ------- 0 20.154 2.631 0 2271
- 0.122634 0 2 tcp 40 ------- 0 20.154 2.631 0 2271
r 0.123436 0 2 ack 40 ------- 0 0.101 2.17 48 3683
+ 0.12352 0 2 tcp 40 ------- 0 19.57 2.559 0 3619
- 0.12352 0 2 tcp 40 ------- 0 19.57 2.559 0 3619
+ 0.124331 0 2 ack 40 ------- 0 0.101 2.17 50 3816
- 0.124331 0 2 ack 40 ------- 0 0.101 2.17 50 3816
r 0.124732 0 2 ack 40 ------- 0 0.101 2.17 49 3733
+ 0.125258 0 2 tcp 40 ------- 0 5.46 2.155 0 3011
- 0.125258 0 2 tcp 40 ------- 0 5.46 2.155 0 3011
r 0.12553 0 2 tcp 40 ------- 0 20.154 2.631 0 2271
r 0.126417 0 2 tcp 40 ------- 0 19.57 2.559 0 3619
r 0.127228 0 2 ack 40 ------- 0 0.101 2.17 50 3816
+ 0.128059 0 2 ack 40 ------- 0 0.101 2.17 51 3959
- 0.128059 0 2 ack 40 ------- 0 0.101 2.17 51 3959
r 0.128154 0 2 tcp 40 ------- 0 5.46 2.155 0 3011
+ 0.129242 0 2 ack 40 ------- 0 4.403 10.137 0 3206
- 0.129242 0 2 ack 40 ------- 0 4.403 10.137 0 3206
+ 0.129323 0 2 ack 40 ------- 0 0.101 2.17 52 3994
- 0.129323 0 2 ack 40 ------- 0 0.101 2.17 52 3994
+ 0.130506 0 2 tcp 40 ------- 0 5.111 2.220 0 3091
- 0.130506 0 2 tcp 40 ------- 0 5.111 2.220 0 3091
+ 0.130538 0 2 tcp 40 ------- 0 4.32 2.128 0 3274
- 0.130538 0 2 tcp 40 ------- 0 4.32 2.128 0 3274
r 0.130956 0 2 ack 40 ------- 0 0.101 2.17 51 3959
+ 0.131834 0 2 ack 40 ------- 0 15.707 2.989 1 3008
- 0.131834 0 2 ack 40 ------- 0 15.707 2.989 1 3008
r 0.132138 0 2 ack 40 ------- 0 4.403 10.137 0 3206
r 0.13222 0 2 ack 40 ------- 0 0.101 2.17 52 3994
r 0.133402 0 2 tcp 40 ------- 0 5.111 2.220 0 3091
r 0.133434 0 2 tcp 40 ------- 0 4.32 2.128 0 3274
+ 0.134265 0 2 tcp 40 ------- 0 19.284 11.847 0 4022
- 0.134265 0 2 tcp 40 ------- 0 19.284 11.847 0 4022
r 0.13473 0 2 ack 40 ------- 0 15.707 2.989 1 3008
+ 0.135562 0 2 tcp 1540 ------- 0 5.1151 10.388 3 3365
- 0.135562 0 2 tcp 1540 ------- 0 5.1151 10.388 3 3365
+ 0.135594 0 2 ack 40 ------- 0 15.707 2.989 2 3053
- 0.136794 0 2 ack 40 ------- 0 15.707 2.989 2 3053
+ 0.136826 0 2 tcp 1540 ------- 0 5.1151 10.388 4 3366
- 0.136826 0 2 tcp 1540 ------- 0 5.1151 10.388 4 3366
r 0.137162 0 2 tcp 40 ------- 0 19.284 11.847 0 4022
+ 0.137454 0 2 tcp 40 ------- 0 3.960 9.538 0 4048
- 0.138058 0 2 tcp 40 ------- 0 3.960 9.538 0 4048
+ 0.139211 0 2 ack 40 ------- 0 0.101 2.17 52 4287
- 0.139211 0 2 ack 40 ------- 0 0.101 2.17 52 4287
+ 0.139482 0 2 tcp 40 ------- 0 19.267 11.830 0 4188
- 0.139482 0 2 tcp 40 ------- 0 19.267 11.830 0 4188
r 0.139658 0 2 tcp 1540 ------- 0 5.1151 10.388 3 3365
r 0.13969 0 2 ack 40 ------- 0 15.707 2.989 2 3053
+ 0.140507 0 2 ack 40 ------- 0 0.101 2.17 52 4334
- 0.140507 0 2 ack 40 ------- 0 0.101 2.17 52 4334
r 0.140922 0 2 tcp 1540 ------- 0 5.1151 10.388 4 3366
r 0.140954 0 2 tcp 40 ------- 0 3.960 9.538 0 4048
+ 0.141739 0 2 ack 40 ------- 0 0.101 2.17 52 4375
- 0.141739 0 2 ack 40 ------- 0 0.101 2.17 52 4375
r 0.142108 0 2 ack 40 ------- 0 0.101 2.17 52 4287
r 0.142379 0 2 tcp 40 ------- 0 19.267 11.830 0 4188
+ 0.142971 0 2 ack 40 ------- 0 0.95 2.11 1 4409
- 0.142971 0 2 ack 40 ------- 0 0.95 2.11 1 4409
+ 0.143178 0 2 ack 40 ------- 0 15.762 2.1044 1 3156
- 0.143178 0 2 ack 40 ------- 0 15.762 2.1044 1 3156
+ 0.143242 0 2 ack 40 ------- 0 15.762 2.1044 2 3204
- 0.143242 0 2 ack 40 ------- 0 15.762 2.1044 2 3204
+ 0.143274 0 2 ack 40 ------- 0 15.716 2.998 0 3207
- 0.143274 0 2 ack 40 ------- 0 15.716 2.998 0 3207
r 0.143404 0 2 ack 40 ------- 0 0.101 2.17 52 4334
+ 0.143582 0 2 tcp 1540 ------- 0 3.1026 9.604 1 4197
- 0.143582 0 2 tcp 1540 ------- 0 3.1026 9.604 1 4197
+ 0.144203 0 2 ack 40 ------- 0 0.95 2.11 2 4450
+ 0.144345 0 2 tcp 40 ------- 0 19.209 10.654 0 4332
r 0.144636 0 2 ack 40 ------- 0 0.101 2.17 52 4375
+ 0.144814 0 2 tcp 1540 ------- 0 3.1026 9.604 2 4198
- 0.144814 0 2 ack 40 ------- 0 0.95 2.11 2 4450
+ 0.144846 0 2 tcp 40 ------- 0 3.1038 11.433 0 4217
- 0.144846 0 2 tcp 40 ------- 0 19.209 10.654 0 4332
- 0.144878 0 2 tcp 1540 ------- 0 3.1026 9.604 2 4198
+ 0.145467 0 2 ack 40 ------- 0 0.101 2.17 52 4499
r 0.145868 0 2 ack 40 ------- 0 0.95 2.11 1 4409
r 0.146074 0 2 ack 40 ------- 0 15.762 2.1044 1 3156
- 0.14611 0 2 tcp 40 ------- 0 3.1038 11.433 0 4217
r 0.146138 0 2 ack 40 ------- 0 15.762 2.1044 2 3204
- 0.146142 0 2 ack 40 ------- 0 0.101 2.17 52 4499
r 0.14617 0 2 ack 40 ------- 0 15.716 2.998 0 3207
+ 0.146479 0 2 tcp 40 ------- 0 19.259 11.822 0 4377
- 0.146479 0 2 tcp 40 ------- 0 19.259 11.822 0 4377
+ 0.146731 0 2 ack 40 ------- 0 0.101 2.17 52 4552
- 0.146731 0 2 ack 40 ------- 0 0.101 2.17 52 4552
+ 0.147002 0 2 ack 40 ------- 0 4.378 10.112 7 3935
- 0.147002 0 2 ack 40 ------- 0 4.378 10.112 7 3935
+ 0.14731 0 2 ack 40 ------- 0 3.121 2.733 3 4348
- 0.14731 0 2 ack 40 ------- 0 3.121 2.733 3 4348
r 0.147679 0 2 tcp 1540 ------- 0 3.1026 9.604 1 4197
r 0.147711 0 2 ack 40 ------- 0 0.95 2.11 2 4450
r 0.147743 0 2 tcp 40 ------- 0 19.209 10.654 0 4332
+ 0.147995 0 2 tcp 1540 ------- 0 0.916 10.242 1 4601
- 0.147995 0 2 tcp 1540 ------- 0 0.916 10.242 1 4601
+ 0.147995 0 2 tcp 1540 ------- 0 0.916 10.242 2 4602
+ 0.148188 0 2 tcp 40 ------- 0 21.309 11.917 0 3227
+ 0.148542 0 2 ack 40 ------- 0 3.121 2.733 4 4389
r 0.148975 0 2 tcp 1540 ------- 0 3.1026 9.604 2 4198
r 0.149007 0 2 tcp 40 ------- 0 3.1038 11.433 0 4217
r 0.149039 0 2 ack 40 ------- 0 0.101 2.17 52 4499
- 0.149227 0 2 tcp 1540 ------- 0 0.916 10.242 2 4602
+ 0.149259 0 2 ack 40 ------- 0 0.101 2.17 52 4644
r 0.149375 0 2 tcp 40 ------- 0 19.259 11.822 0 4377
r 0.149628 0 2 ack 40 ------- 0 0.101 2.17 52 4552
+ 0.149774 0 2 ack 40 ------- 0 3.121 2.733 5 4427
+ 0.149829 0 2 ack 40 ------- 0 24.646 2.1240 0 2034
r 0.149898 0 2 ack 40 ------- 0 4.378 10.112 7 3935
r 0.150207 0 2 ack 40 ------- 0 3.121 2.733 3 4348
- 0.150459 0 2 tcp 40 ------- 0 21.309 11.917 0 3227
+ 0.150491 0 2 ack 40 ------- 0 0.101 2.17 52 4701
- 0.150491 0 2 ack 40 ------- 0 3.121 2.733 4 4389
+ 0.150523 0 2 ack 40 ------- 0 0.183 9.5 0 4702
- 0.150523 0 2 ack 40 ------- 0 0.101 2.17 52 4644
- 0.150555 0 2 ack 40 ------- 0 3.121 2.733 5 4427
- 0.150587 0 2 ack 40 ------- 0 24.646 2.1240 0 2034
- 0.150619 0 2 ack 40 ------- 0 0.101 2.17 52 4701
- 0.150651 0 2 ack 40 ------- 0 0.183 9.5 0 4702
+ 0.151006 0 2 ack 40 ------- 0 3.121 2.733 6 4471
- 0.151006 0 2 ack 40 ------- 0 3.121 2.733 6 4471
+ 0.151252 0 2 tcp 40 ------- 0 0.913 10.239 0 4716
- 0.151252 0 2 tcp 40 ------- 0 0.913 10.239 0 4716
+ 0.151819 0 2 ack 40 ------- 0 0.101 2.17 52 4725
- 0.151819 0 2 ack 40 ------- 0 0.101 2.17 52 4725
+ 0.151851 0 2 ack 40 ------- 0 0.180 9.2 0 4726
- 0.151851 0 2 ack 40 ------- 0 0.180 9.2 0 4726
r 0.152092 0 2 tcp 1540 ------- 0 0.916 10.242 1 4601
+ 0.152238 0 2 ack 40 ------- 0 3.337 9.242 1 4516
- 0.152238 0 2 ack 40 ------- 0 3.337 9.242 1 4516
+ 0.153179 0 2 ack 40 ------- 0 0.101 2.17 52 4767
- 0.153179 0 2 ack 40 ------- 0 0.101 2.17 52 4767
+ 0.153211 0 2 ack 40 ------- 0 0.187 9.9 0 4768
- 0.153211 0 2 ack 40 ------- 0 0.187 9.9 0 4768
r 0.153324 0 2 tcp 1540 ------- 0 0.916 10.242 2 4602
r 0.153356 0 2 tcp 40 ------- 0 21.309 11.917 0 3227
r 0.153388 0 2 ack 40 ------- 0 3.121 2.733 4 4389
r 0.15342 0 2 ack 40 ------- 0 0.101 2.17 52 4644
r 0.153452 0 2 ack 40 ------- 0 3.121 2.733 5 4427
r 0.153484 0 2 ack 40 ------- 0 24.646 2.1240 0 2034
r 0.153516 0 2 ack 40 ------- 0 0.101 2.17 52 4701
r 0.153548 0 2 ack 40 ------- 0 0.183 9.5 0 4702
r 0.153903 0 2 ack 40 ------- 0 3.121 2.733 6 4471
r 0.154148 0 2 tcp 40 ------- 0 0.913 10.239 0 4716
+ 0.154443 0 2 ack 40 ------- 0 0.101 2.17 52 4810
- 0.154443 0 2 ack 40 ------- 0 0.101 2.17 52 4810
+ 0.154475 0 2 tcp 1540 ------- 0 0.870 9.442 7 4813
+ 0.154475 0 2 tcp 1540 ------- 0 0.870 9.442 8 4814
- 0.154475 0 2 tcp 1540 ------- 0 0.870 9.442 7 4813
+ 0.154508 0 2 tcp 40 ------- 0 3.1084 11.479 0 4598
r 0.154716 0 2 ack 40 ------- 0 0.101 2.17 52 4725
r 0.154748 0 2 ack 40 ------- 0 0.180 9.2 0 4726
r 0.155135 0 2 ack 40 ------- 0 3.337 9.242 1 4516
- 0.155707 0 2 tcp 1540 ------- 0 0.870 9.442 8 4814
r 0.156076 0 2 ack 40 ------- 0 0.101 2.17 52 4767
r 0.156108 0 2 ack 40 ------- 0 0.187 9.9 0 4768
+ 0.156939 0 2 ack 40 ------- 0 0.101 2.17 52 4912
- 0.156939 0 2 tcp 40 ------- 0 3.1084 11.479 0 4598
- 0.156971 0 2 ack 40 ------- 0 0.101 2.17 52 4912
+ 0.15705 0 2 ack 40 ------- 0 4.378 10.112 8 4159
- 0.15705 0 2 ack 40 ------- 0 4.378 10.112 8 4159
r 0.15734 0 2 ack 40 ------- 0 0.101 2.17 52 4810
+ 0.157936 0 2 tcp 40 ------- 0 19.277 11.840 0 4798
- 0.157936 0 2 tcp 40 ------- 0 19.277 11.840 0 4798
r 0.158572 0 2 tcp 1540 ------- 0 0.870 9.442 7 4813
+ 0.159403 0 2 ack 40 ------- 0 0.101 2.17 52 4982
- 0.159403 0 2 ack 40 ------- 0 0.101 2.17 52 4982
+ 0.159546 0 2 ack 40 ------- 0 4.378 10.112 9 4200
- 0.159546 0 2 ack 40 ------- 0 4.378 10.112 9 4200
+ 0.159729 0 2 tcp 40 ------- 0 3.1080 11.475 0 4778
- 0.159729 0 2 tcp 40 ------- 0 3.1080 11.475 0 4778
r 0.159804 0 2 tcp 1540 ------- 0 0.870 9.442 8 4814
r 0.159836 0 2 tcp 40 ------- 0 3.1084 11.479 0 4598
r 0.159868 0 2 ack 40 ------- 0 0.101 2.17 52 4912
r 0.159946 0 2 ack 40 ------- 0 4.378 10.112 8 4159
+ 0.160667 0 2 ack 40 ------- 0 0.101 2.17 52 5035
- 0.160667 0 2 ack 40 ------- 0 0.101 2.17 52 5035
+ 0.160731 0 2 ack 40 ------- 0 0.234 11.26 0 5038
- 0.160731 0 2 ack 40 ------- 0 0.234 11.26 0 5038
+ 0.16081 0 2 ack 40 ------- 0 4.378 10.112 10 4232
- 0.16081 0 2 ack 40 ------- 0 4.378 10.112 10 4232
r 0.160833 0 2 tcp 40 ------- 0 19.277 11.840 0 4798
+ 0.161963 0 2 ack 40 ------- 0 0.101 2.17 52 5096
- 0.161963 0 2 ack 40 ------- 0 0.101 2.17 52 5096
r 0.1623 0 2 ack 40 ------- 0 0.101 2.17 52 4982
r 0.162442 0 2 ack 40 ------- 0 4.378 10.112 9 4200
r 0.162625 0 2 tcp 40 ------- 0 3.1080 11.475 0 4778
+ 0.162699 0 2 tcp 40 ------- 0 17.87 2.515 0 4882
- 0.162699 0 2 tcp 40 ------- 0 17.87 2.515 0 4882
+ 0.163195 0 2 ack 40 ------- 0 0.101 2.17 52 5140
- 0.163195 0 2 ack 40 ------- 0 0.101 2.17 52 5140
+ 0.163291 0 2 tcp 1540 ------- 0 0.870 9.442 9 5150
- 0.163291 0 2 tcp 1540 ------- 0 0.870 9.442 9 5150