+ 0.001833 17 18 rtProtoDV 26 ------- 0 17.1417 18.1037 -1 19
- 0.001833 17 18 rtProtoDV 26 ------- 0 17.1417 18.1037 -1 19
r 0.00293 17 18 rtProtoDV 26 ------- 0 17.1417 18.1037 -1 19
+ 0.004026 17 18 rtProtoDV 26 ------- 0 17.1417 18.1037 -1 56
- 0.004026 17 18 rtProtoDV 26 ------- 0 17.1417 18.1037 -1 56
r 0.005123 17 18 rtProtoDV 26 ------- 0 17.1417 18.1037 -1 56
+ 0.005991 17 18 rtProtoDV 26 ------- 0 17.1417 18.1037 -1 128
- 0.005991 17 18 rtProtoDV 26 ------- 0 17.1417 18.1037 -1 128
+ 0.006319 17 18 rtProtoDV 26 ------- 0 17.1417 18.1037 -1 135
- 0.006319 17 18 rtProtoDV 26 ------- 0 17.1417 18.1037 -1 135
+ 0.006784 17 18 rtProtoDV 26 ------- 0 17.1417 18.1037 -1 145
- 0.006784 17 18 rtProtoDV 26 ------- 0 17.1417 18.1037 -1 145
r 0.007088 17 18 rtProtoDV 26 ------- 0 17.1417 18.1037 -1 128
r 0.007416 17 18 rtProtoDV 26 ------- 0 17.1417 18.1037 -1 135
r 0.00788 17 18 rtProtoDV 26 ------- 0 17.1417 18.1037 -1 145
+ 0.009823 17 18 rtProtoDV 26 ------- 0 17.1417 18.1037 -1 276
- 0.009823 17 18 rtProtoDV 26 ------- 0 17.1417 18.1037 -1 276
r 0.01092 17 18 rtProtoDV 26 ------- 0 17.1417 18.1037 -1 276
+ 0.011291 17 18 rtProtoDV 26 ------- 0 17.1417 18.1037 -1 380
- 0.011291 17 18 rtProtoDV 26 ------- 0 17.1417 18.1037 -1 380
r 0.012388 17 18 rtProtoDV 26 ------- 0 17.1417 18.1037 -1 380
+ 0.014922 17 18 rtProtoDV 26 ------- 0 17.1417 18.1037 -1 564
- 0.014922 17 18 rtProtoDV 26 ------- 0 17.1417 18.1037 -1 564
r 0.016019 17 18 rtProtoDV 26 ------- 0 17.1417 18.1037 -1 564
+ 0.01647 17 18 rtProtoDV 26 ------- 0 17.1417 18.1037 -1 610
- 0.01647 17 18 rtProtoDV 26 ------- 0 17.1417 18.1037 -1 610
+ 0.01705 17 18 rtProtoDV 26 ------- 0 17.1417 18.1037 -1 638
- 0.01705 17 18 rtProtoDV 26 ------- 0 17.1417 18.1037 -1 638
r 0.017567 17 18 rtProtoDV 26 ------- 0 17.1417 18.1037 -1 610
r 0.018147 17 18 rtProtoDV 26 ------- 0 17.1417 18.1037 -1 638
+ 0.018722 17 18 rtProtoDV 26 ------- 0 17.1417 18.1037 -1 699
- 0.018722 17 18 rtProtoDV 26 ------- 0 17.1417 18.1037 -1 699
+ 0.01956 17 18 tcp 40 ------- 0 19.315 11.878 0 569
- 0.01956 17 18 tcp 40 ------- 0 19.315 11.878 0 569
r 0.019819 17 18 rtProtoDV 26 ------- 0 17.1417 18.1037 -1 699
r 0.020702 17 18 tcp 40 ------- 0 19.315 11.878 0 569
+ 0.027273 17 18 tcp 40 ------- 0 17.1285 18.877 0 926
- 0.027273 17 18 tcp 40 ------- 0 17.1285 18.877 0 926
r 0.028414 17 18 tcp 40 ------- 0 17.1285 18.877 0 926
+ 0.029556 17 18 tcp 1540 ------- 0 17.1285 18.877 1 982
- 0.029556 17 18 tcp 1540 ------- 0 17.1285 18.877 1 982
+ 0.029556 17 18 tcp 1540 ------- 0 17.1285 18.877 2 983
+ 0.033334 17 18 ack 40 ------- 0 17.767 11.1319 0 1072
- 0.034484 17 18 tcp 1540 ------- 0 17.1285 18.877 2 983
r 0.035497 17 18 tcp 1540 ------- 0 17.1285 18.877 1 982
+ 0.036639 17 18 tcp 1540 ------- 0 17.1285 18.877 3 1148
+ 0.036639 17 18 tcp 1540 ------- 0 17.1285 18.877 4 1149
- 0.039412 17 18 ack 40 ------- 0 17.767 11.1319 0 1072
+ 0.039526 17 18 ack 40 ------- 0 0.428 18.10 0 1179
- 0.03954 17 18 tcp 1540 ------- 0 17.1285 18.877 3 1148
r 0.040425 17 18 tcp 1540 ------- 0 17.1285 18.877 2 983
r 0.040553 17 18 ack 40 ------- 0 17.767 11.1319 0 1072
+ 0.041371 17 18 tcp 40 ------- 0 21.383 18.974 0 997
+ 0.041567 17 18 tcp 1540 ------- 0 17.1285 18.877 5 1269
+ 0.041567 17 18 tcp 1540 ------- 0 17.1285 18.877 6 1270
+ 0.04351 17 18 ack 40 ------- 0 15.1098 18.269 0 1080
- 0.044468 17 18 tcp 1540 ------- 0 17.1285 18.877 4 1149
r 0.045481 17 18 tcp 1540 ------- 0 17.1285 18.877 3 1148
+ 0.046623 17 18 tcp 1540 ------- 0 17.1285 18.877 7 1395
+ 0.046623 17 18 tcp 1540 ------- 0 17.1285 18.877 8 1396
- 0.049396 17 18 ack 40 ------- 0 0.428 18.10 0 1179
- 0.049524 17 18 tcp 40 ------- 0 21.383 18.974 0 997
- 0.049652 17 18 tcp 1540 ------- 0 17.1285 18.877 5 1269
r 0.050409 17 18 tcp 1540 ------- 0 17.1285 18.877 4 1149
r 0.050537 17 18 ack 40 ------- 0 0.428 18.10 0 1179
r 0.050665 17 18 tcp 40 ------- 0 21.383 18.974 0 997
+ 0.051551 17 18 tcp 1540 ------- 0 17.1285 18.877 9 1524
+ 0.051551 17 18 tcp 1540 ------- 0 17.1285 18.877 10 1525
- 0.05458 17 18 tcp 1540 ------- 0 17.1285 18.877 6 1270
r 0.055593 17 18 tcp 1540 ------- 0 17.1285 18.877 5 1269
- 0.059508 17 18 ack 40 ------- 0 15.1098 18.269 0 1080
- 0.059636 17 18 tcp 1540 ------- 0 17.1285 18.877 7 1395
r 0.060521 17 18 tcp 1540 ------- 0 17.1285 18.877 6 1270
r 0.060649 17 18 ack 40 ------- 0 15.1098 18.269 0 1080
+ 0.061791 17 18 tcp 1540 ------- 0 17.1285 18.877 11 1801
+ 0.061791 17 18 tcp 1540 ------- 0 17.1285 18.877 12 1802
+ 0.061919 17 18 tcp 1540 ------- 0 17.1285 18.877 13 1807
+ 0.061919 17 18 tcp 1540 ------- 0 17.1285 18.877 14 1808
- 0.064564 17 18 tcp 1540 ------- 0 17.1285 18.877 8 1396
r 0.065577 17 18 tcp 1540 ------- 0 17.1285 18.877 7 1395
- 0.069492 17 18 tcp 1540 ------- 0 17.1285 18.877 9 1524
r 0.070505 17 18 tcp 1540 ------- 0 17.1285 18.877 8 1396
+ 0.071662 17 18 ack 40 ------- 0 0.428 18.10 1 2049
+ 0.071903 17 18 tcp 1540 ------- 0 17.1285 18.877 15 2114
+ 0.071903 17 18 tcp 1540 ------- 0 17.1285 18.877 16 2115
+ 0.072031 17 18 tcp 1540 ------- 0 17.1285 18.877 17 2122
+ 0.072031 17 18 tcp 1540 ------- 0 17.1285 18.877 18 2123
d 0.072031 17 18 tcp 1540 ------- 0 17.1285 18.877 18 2123
+ 0.074088 17 18 tcp 40 ------- 0 0.1235 18.344 0 2142
d 0.074088 17 18 tcp 40 ------- 0 0.1235 18.344 0 2142
- 0.07442 17 18 tcp 1540 ------- 0 17.1285 18.877 10 1525
r 0.075433 17 18 tcp 1540 ------- 0 17.1285 18.877 9 1524
+ 0.076575 17 18 tcp 1540 ------- 0 17.1285 18.877 19 2263
+ 0.076575 17 18 tcp 1540 ------- 0 17.1285 18.877 20 2264
d 0.076575 17 18 tcp 1540 ------- 0 17.1285 18.877 20 2264
+ 0.07659 17 18 ack 40 ------- 0 0.428 18.10 2 2215
d 0.07659 17 18 ack 40 ------- 0 0.428 18.10 2 2215
- 0.079348 17 18 tcp 1540 ------- 0 17.1285 18.877 11 1801
r 0.080361 17 18 tcp 1540 ------- 0 17.1285 18.877 10 1525
+ 0.081503 17 18 tcp 1540 ------- 0 17.1285 18.877 21 2444
+ 0.081503 17 18 tcp 1540 ------- 0 17.1285 18.877 22 2445
d 0.081503 17 18 tcp 1540 ------- 0 17.1285 18.877 22 2445
- 0.084276 17 18 tcp 1540 ------- 0 17.1285 18.877 12 1802
r 0.085289 17 18 tcp 1540 ------- 0 17.1285 18.877 11 1801
+ 0.085291 17 18 tcp 40 ------- 0 17.306 11.803 0 2567
+ 0.086431 17 18 tcp 1540 ------- 0 17.1285 18.877 23 2610
d 0.086431 17 18 tcp 1540 ------- 0 17.1285 18.877 23 2610
+ 0.086431 17 18 tcp 1540 ------- 0 17.1285 18.877 24 2611
d 0.086431 17 18 tcp 1540 ------- 0 17.1285 18.877 24 2611
- 0.089204 17 18 tcp 1540 ------- 0 17.1285 18.877 13 1807
r 0.090217 17 18 tcp 1540 ------- 0 17.1285 18.877 12 1802
+ 0.091359 17 18 tcp 1540 ------- 0 17.1285 18.877 25 2776
+ 0.091359 17 18 tcp 1540 ------- 0 17.1285 18.877 26 2777
d 0.091359 17 18 tcp 1540 ------- 0 17.1285 18.877 26 2777
- 0.094132 17 18 tcp 1540 ------- 0 17.1285 18.877 14 1808
r 0.095145 17 18 tcp 1540 ------- 0 17.1285 18.877 13 1807
+ 0.096287 17 18 tcp 1540 ------- 0 17.1285 18.877 27 2910
+ 0.096287 17 18 tcp 1540 ------- 0 17.1285 18.877 28 2911
d 0.096287 17 18 tcp 1540 ------- 0 17.1285 18.877 28 2911
- 0.09906 17 18 ack 40 ------- 0 0.428 18.10 1 2049
- 0.099188 17 18 tcp 1540 ------- 0 17.1285 18.877 15 2114
+ 0.09978 17 18 tcp 40 ------- 0 17.268 10.617 0 3036
r 0.100073 17 18 tcp 1540 ------- 0 17.1285 18.877 14 1808
r 0.100201 17 18 ack 40 ------- 0 0.428 18.10 1 2049
+ 0.101215 17 18 tcp 1540 ------- 0 17.1285 18.877 29 3092
+ 0.101215 17 18 tcp 1540 ------- 0 17.1285 18.877 30 3093
d 0.101215 17 18 tcp 1540 ------- 0 17.1285 18.877 30 3093
- 0.104116 17 18 tcp 1540 ------- 0 17.1285 18.877 16 2115
r 0.105129 17 18 tcp 1540 ------- 0 17.1285 18.877 15 2114
+ 0.106158 17 18 tcp 40 ------- 0 17.1301 18.893 0 3269
+ 0.107076 17 18 tcp 40 ------- 0 17.1382 22.963 0 3290
d 0.107076 17 18 tcp 40 ------- 0 17.1382 22.963 0 3290
- 0.109044 17 18 tcp 1540 ------- 0 17.1285 18.877 17 2122
r 0.110057 17 18 tcp 1540 ------- 0 17.1285 18.877 16 2115
+ 0.110502 17 18 ack 40 ------- 0 0.539 22.30 0 3342
+ 0.111199 17 18 tcp 1540 ------- 0 17.1285 18.877 31 3420
d 0.111199 17 18 tcp 1540 ------- 0 17.1285 18.877 31 3420
+ 0.111199 17 18 tcp 1540 ------- 0 17.1285 18.877 32 3421
d 0.111199 17 18 tcp 1540 ------- 0 17.1285 18.877 32 3421
+ 0.111321 17 18 tcp 40 ------- 0 17.292 10.641 0 3425
d 0.111321 17 18 tcp 40 ------- 0 17.292 10.641 0 3425
+ 0.111327 17 18 tcp 1540 ------- 0 17.1285 18.877 33 3426
d 0.111327 17 18 tcp 1540 ------- 0 17.1285 18.877 33 3426
+ 0.111327 17 18 tcp 1540 ------- 0 17.1285 18.877 34 3427
d 0.111327 17 18 tcp 1540 ------- 0 17.1285 18.877 34 3427
- 0.113972 17 18 tcp 1540 ------- 0 17.1285 18.877 19 2263
r 0.114985 17 18 tcp 1540 ------- 0 17.1285 18.877 17 2122
+ 0.116127 17 18 tcp 1540 ------- 0 17.1285 18.877 35 3557
+ 0.116127 17 18 tcp 1540 ------- 0 17.1285 18.877 36 3558
d 0.116127 17 18 tcp 1540 ------- 0 17.1285 18.877 36 3558
+ 0.116222 17 18 ack 40 ------- 0 0.428 18.10 3 3510
d 0.116222 17 18 ack 40 ------- 0 0.428 18.10 3 3510
- 0.1189 17 18 tcp 1540 ------- 0 17.1285 18.877 21 2444
r 0.119913 17 18 tcp 1540 ------- 0 17.1285 18.877 19 2263
+ 0.121055 17 18 tcp 1540 ------- 0 17.1285 18.877 37 3707
+ 0.122087 17 18 ack 40 ------- 0 17.767 11.1319 1 3739
d 0.122087 17 18 ack 40 ------- 0 17.767 11.1319 1 3739
- 0.123828 17 18 tcp 40 ------- 0 17.306 11.803 0 2567
- 0.123956 17 18 tcp 1540 ------- 0 17.1285 18.877 25 2776
r 0.124841 17 18 tcp 1540 ------- 0 17.1285 18.877 21 2444
r 0.124969 17 18 tcp 40 ------- 0 17.306 11.803 0 2567
+ 0.125606 17 18 ack 40 ------- 0 15.1098 18.269 1 2732
+ 0.12662 17 18 ack 40 ------- 0 1.752 18.28 0 2384
+ 0.127382 17 18 ack 40 ------- 0 15.1098 18.269 2 2876
d 0.127382 17 18 ack 40 ------- 0 15.1098 18.269 2 2876
- 0.128884 17 18 tcp 1540 ------- 0 17.1285 18.877 27 2910
r 0.129897 17 18 tcp 1540 ------- 0 17.1285 18.877 25 2776
+ 0.131039 17 18 tcp 1540 ---A--- 0 17.1285 18.877 18 4045
+ 0.133335 17 18 ack 40 ------- 0 17.767 11.1319 2 4110
d 0.133335 17 18 ack 40 ------- 0 17.767 11.1319 2 4110
+ 0.133463 17 18 ack 40 ------- 0 17.664 11.1216 0 4118
d 0.133463 17 18 ack 40 ------- 0 17.664 11.1216 0 4118
+ 0.133591 17 18 ack 40 ------- 0 0.428 18.10 4 3993
d 0.133591 17 18 ack 40 ------- 0 0.428 18.10 4 3993
- 0.133812 17 18 tcp 40 ------- 0 17.268 10.617 0 3036
- 0.13394 17 18 tcp 1540 ------- 0 17.1285 18.877 29 3092
r 0.134825 17 18 tcp 1540 ------- 0 17.1285 18.877 27 2910
r 0.134953 17 18 tcp 40 ------- 0 17.268 10.617 0 3036
+ 0.135434 17 18 tcp 40 ------- 0 3.1254 18.359 0 3885
+ 0.136095 17 18 ack 40 ------- 0 17.1254 22.532 0 4204
+ 0.13843 17 18 tcp 40 ------- 0 17.302 11.799 0 4261
d 0.13843 17 18 tcp 40 ------- 0 17.302 11.799 0 4261
- 0.138868 17 18 tcp 40 ------- 0 17.1301 18.893 0 3269
- 0.138996 17 18 ack 40 ------- 0 0.539 22.30 0 3342
- 0.139124 17 18 tcp 1540 ------- 0 17.1285 18.877 35 3557
r 0.139881 17 18 tcp 1540 ------- 0 17.1285 18.877 29 3092
r 0.140009 17 18 tcp 40 ------- 0 17.1301 18.893 0 3269
r 0.140137 17 18 ack 40 ------- 0 0.539 22.30 0 3342
+ 0.141151 17 18 tcp 1540 ------- 0 17.1301 18.893 1 4357
+ 0.141151 17 18 tcp 1540 ------- 0 17.1301 18.893 2 4358
+ 0.14287 17 18 tcp 40 ------- 0 17.1296 18.888 0 4406
- 0.144052 17 18 tcp 1540 ------- 0 17.1285 18.877 37 3707
r 0.145065 17 18 tcp 1540 ------- 0 17.1285 18.877 35 3557
+ 0.145183 17 18 ack 40 ------- 0 17.1179 18.311 0 4495
+ 0.147207 17 18 ack 40 ------- 0 17.655 10.883 0 4577
d 0.147207 17 18 ack 40 ------- 0 17.655 10.883 0 4577
- 0.14898 17 18 ack 40 ------- 0 15.1098 18.269 1 2732
- 0.149108 17 18 ack 40 ------- 0 1.752 18.28 0 2384
- 0.149236 17 18 tcp 1540 ---A--- 0 17.1285 18.877 18 4045
r 0.149993 17 18 tcp 1540 ------- 0 17.1285 18.877 37 3707
r 0.150121 17 18 ack 40 ------- 0 15.1098 18.269 1 2732
r 0.150249 17 18 ack 40 ------- 0 1.752 18.28 0 2384
- 0.154164 17 18 tcp 40 ------- 0 3.1254 18.359 0 3885
- 0.154292 17 18 ack 40 ------- 0 17.1254 22.532 0 4204
- 0.15442 17 18 tcp 1540 ------- 0 17.1301 18.893 1 4357
r 0.155177 17 18 tcp 1540 ---A--- 0 17.1285 18.877 18 4045
r 0.155305 17 18 tcp 40 ------- 0 3.1254 18.359 0 3885
r 0.155433 17 18 ack 40 ------- 0 17.1254 22.532 0 4204
- 0.159348 17 18 tcp 1540 ------- 0 17.1301 18.893 2 4358
r 0.160361 17 18 tcp 1540 ------- 0 17.1301 18.893 1 4357
+ 0.16359 17 18 tcp 1540 ------- 0 21.383 18.974 1 3248
- 0.164276 17 18 tcp 40 ------- 0 17.1296 18.888 0 4406
- 0.164404 17 18 ack 40 ------- 0 17.1179 18.311 0 4495
- 0.164532 17 18 tcp 1540 ------- 0 21.383 18.974 1 3248
r 0.165289 17 18 tcp 1540 ------- 0 17.1301 18.893 2 4358
r 0.165417 17 18 tcp 40 ------- 0 17.1296 18.888 0 4406
r 0.165545 17 18 ack 40 ------- 0 17.1179 18.311 0 4495
+ 0.168097 17 18 tcp 40 ------- 0 17.1277 18.869 0 5338
- 0.16946 17 18 tcp 40 ------- 0 17.1277 18.869 0 5338
r 0.170473 17 18 tcp 1540 ------- 0 21.383 18.974 1 3248
r 0.170601 17 18 tcp 40 ------- 0 17.1277 18.869 0 5338
+ 0.170975 17 18 tcp 1540 ------- 0 17.1285 18.877 20 5462
- 0.170975 17 18 tcp 1540 ------- 0 17.1285 18.877 20 5462
+ 0.170975 17 18 tcp 1540 ------- 0 17.1285 18.877 21 5463
+ 0.171231 17 18 tcp 1540 ------- 0 17.1301 18.893 3 5485
+ 0.171231 17 18 tcp 1540 ------- 0 17.1301 18.893 4 5486
+ 0.171359 17 18 tcp 1540 ------- 0 17.1301 18.893 5 5495
+ 0.171359 17 18 tcp 1540 ------- 0 17.1301 18.893 6 5496
+ 0.171487 17 18 tcp 1540 ------- 0 17.1296 18.888 1 5503
+ 0.171487 17 18 tcp 1540 ------- 0 17.1296 18.888 2 5504
- 0.175903 17 18 tcp 1540 ------- 0 17.1285 18.877 21 5463
+ 0.176415 17 18 ack 40 ------- 0 17.1179 18.311 1 5705
r 0.176916 17 18 tcp 1540 ------- 0 17.1285 18.877 20 5462
+ 0.178502 17 18 tcp 1540 ------- 0 21.383 18.974 2 3249
+ 0.178758 17 18 tcp 40 ------- 0 21.374 18.965 0 3266
+ 0.179142 17 18 tcp 40 ------- 0 0.1233 18.342 0 5585
d 0.179142 17 18 tcp 40 ------- 0 0.1233 18.342 0 5585
- 0.180831 17 18 tcp 1540 ------- 0 17.1301 18.893 3 5485
+ 0.181343 17 18 ack 40 ------- 0 17.1179 18.311 2 5852
+ 0.181599 17 18 tcp 1540 ------- 0 17.1277 18.869 1 5861
d 0.181599 17 18 tcp 1540 ------- 0 17.1277 18.869 1 5861
+ 0.181599 17 18 tcp 1540 ------- 0 17.1277 18.869 2 5862
d 0.181599 17 18 tcp 1540 ------- 0 17.1277 18.869 2 5862
+ 0.181727 17 18 tcp 1540 ------- 0 17.1285 18.877 22 5867
d 0.181727 17 18 tcp 1540 ------- 0 17.1285 18.877 22 5867
+ 0.181727 17 18 tcp 1540 ------- 0 17.1285 18.877 23 5868
d 0.181727 17 18 tcp 1540 ------- 0 17.1285 18.877 23 5868
+ 0.181727 17 18 tcp 1540 ------- 0 17.1285 18.877 24 5869
d 0.181727 17 18 tcp 1540 ------- 0 17.1285 18.877 24 5869
r 0.181844 17 18 tcp 1540 ------- 0 17.1285 18.877 21 5463
+ 0.182986 17 18 tcp 1540 ------- 0 17.1285 18.877 25 5904
d 0.182986 17 18 tcp 1540 ------- 0 17.1285 18.877 25 5904
- 0.185759 17 18 tcp 1540 ------- 0 17.1301 18.893 4 5486
r 0.186772 17 18 tcp 1540 ------- 0 17.1301 18.893 3 5485
+ 0.187914 17 18 tcp 1540 ------- 0 17.1301 18.893 7 6056
+ 0.187914 17 18 tcp 1540 ------- 0 17.1301 18.893 8 6057
d 0.187914 17 18 tcp 1540 ------- 0 17.1301 18.893 8 6057
- 0.190687 17 18 tcp 1540 ------- 0 17.1301 18.893 5 5495
r 0.1917 17 18 tcp 1540 ------- 0 17.1301 18.893 4 5486
+ 0.192842 17 18 tcp 1540 ------- 0 17.1301 18.893 9 6232
+ 0.192842 17 18 tcp 1540 ------- 0 17.1301 18.893 10 6233
d 0.192842 17 18 tcp 1540 ------- 0 17.1301 18.893 10 6233
- 0.195615 17 18 tcp 1540 ------- 0 17.1301 18.893 6 5496
+ 0.196145 17 18 ack 40 ------- 0 1.755 18.31 0 4393
r 0.196628 17 18 tcp 1540 ------- 0 17.1301 18.893 5 5495
+ 0.19777 17 18 tcp 1540 ------- 0 17.1301 18.893 11 6420
d 0.19777 17 18 tcp 1540 ------- 0 17.1301 18.893 11 6420
+ 0.19777 17 18 tcp 1540 ------- 0 17.1301 18.893 12 6421
d 0.19777 17 18 tcp 1540 ------- 0 17.1301 18.893 12 6421
- 0.200543 17 18 tcp 1540 ------- 0 17.1296 18.888 1 5503
+ 0.201365 17 18 tcp 40 ------- 0 17.293 10.642 0 6557
r 0.201556 17 18 tcp 1540 ------- 0 17.1301 18.893 6 5496
+ 0.202698 17 18 tcp 1540 ------- 0 17.1301 18.893 13 6617
d 0.202698 17 18 tcp 1540 ------- 0 17.1301 18.893 13 6617
+ 0.202698 17 18 tcp 1540 ------- 0 17.1301 18.893 14 6618
d 0.202698 17 18 tcp 1540 ------- 0 17.1301 18.893 14 6618
+ 0.202707 17 18 tcp 40 ------- 0 19.532 18.930 0 2360
d 0.202707 17 18 tcp 40 ------- 0 19.532 18.930 0 2360
+ 0.20484 17 18 tcp 40 ------- 0 19.510 18.908 0 2714
d 0.20484 17 18 tcp 40 ------- 0 19.510 18.908 0 2714
- 0.205471 17 18 tcp 1540 ------- 0 17.1296 18.888 2 5504
r 0.206484 17 18 tcp 1540 ------- 0 17.1296 18.888 1 5503
+ 0.207626 17 18 tcp 1540 ------- 0 17.1296 18.888 3 6784
+ 0.207626 17 18 tcp 1540 ------- 0 17.1296 18.888 4 6785
d 0.207626 17 18 tcp 1540 ------- 0 17.1296 18.888 4 6785
+ 0.20841 17 18 tcp 1540 ------- 0 3.1254 18.359 1 6278
d 0.20841 17 18 tcp 1540 ------- 0 3.1254 18.359 1 6278
- 0.210399 17 18 ack 40 ------- 0 17.1179 18.311 1 5705
- 0.210527 17 18 tcp 1540 ------- 0 21.383 18.974 2 3249
r 0.211412 17 18 tcp 1540 ------- 0 17.1296 18.888 2 5504
r 0.21154 17 18 ack 40 ------- 0 17.1179 18.311 1 5705
+ 0.211828 17 18 rtProtoDV 26 ------- 0 17.1417 18.1037 -1 6922
+ 0.212554 17 18 tcp 1540 ------- 0 17.1296 18.888 5 6942
+ 0.212554 17 18 tcp 1540 ------- 0 17.1296 18.888 6 6943
d 0.212554 17 18 tcp 1540 ------- 0 17.1296 18.888 6 6943
+ 0.213338 17 18 tcp 1540 ------- 0 3.1254 18.359 2 6279
d 0.213338 17 18 tcp 1540 ------- 0 3.1254 18.359 2 6279
+ 0.214362 17 18 tcp 40 ------- 0 14.1436 18.739 0 4905
d 0.214362 17 18 tcp 40 ------- 0 14.1436 18.739 0 4905
+ 0.215341 17 18 tcp 40 ------- 0 17.1390 22.971 0 7063
d 0.215341 17 18 tcp 40 ------- 0 17.1390 22.971 0 7063
- 0.215455 17 18 tcp 40 ------- 0 21.374 18.965 0 3266
- 0.215583 17 18 ack 40 ------- 0 17.1179 18.311 2 5852
- 0.215711 17 18 tcp 1540 ------- 0 17.1301 18.893 7 6056
r 0.216468 17 18 tcp 1540 ------- 0 21.383 18.974 2 3249
r 0.216596 17 18 tcp 40 ------- 0 21.374 18.965 0 3266
r 0.216724 17 18 ack 40 ------- 0 17.1179 18.311 2 5852
+ 0.217482 17 18 ack 40 ------- 0 17.1179 18.311 3 7132
- 0.220639 17 18 tcp 1540 ------- 0 17.1301 18.893 9 6232
r 0.221652 17 18 tcp 1540 ------- 0 17.1301 18.893 7 6056
+ 0.22241 17 18 ack 40 ------- 0 17.1179 18.311 4 7302
+ 0.222666 17 18 ack 40 ------- 0 17.1193 18.325 0 7307
+ 0.224262 17 18 ack 40 ------- 0 15.1098 18.269 3 5562
+ 0.224775 17 18 tcp 1540 ------- 0 17.268 10.617 1 7389
d 0.224775 17 18 tcp 1540 ------- 0 17.268 10.617 1 7389
+ 0.224775 17 18 tcp 1540 ------- 0 17.268 10.617 2 7390
d 0.224775 17 18 tcp 1540 ------- 0 17.268 10.617 2 7390
- 0.225567 17 18 ack 40 ------- 0 1.755 18.31 0 4393
- 0.225695 17 18 tcp 40 ------- 0 17.293 10.642 0 6557
- 0.225823 17 18 tcp 1540 ------- 0 17.1296 18.888 3 6784
r 0.22658 17 18 tcp 1540 ------- 0 17.1301 18.893 9 6232
r 0.226708 17 18 ack 40 ------- 0 1.755 18.31 0 4393
r 0.226836 17 18 tcp 40 ------- 0 17.293 10.642 0 6557
+ 0.227978 17 18 ack 40 ------- 0 17.1179 18.311 5 7497
- 0.230751 17 18 rtProtoDV 26 ------- 0 17.1417 18.1037 -1 6922
+ 0.230778 17 18 ack 40 ------- 0 1.752 18.28 1 5696
- 0.230834 17 18 tcp 1540 ------- 0 17.1296 18.888 5 6942
r 0.231764 17 18 tcp 1540 ------- 0 17.1296 18.888 3 6784
r 0.231848 17 18 rtProtoDV 26 ------- 0 17.1417 18.1037 -1 6922
+ 0.232906 17 18 ack 40 ------- 0 17.1179 18.311 6 7697
+ 0.233034 17 18 tcp 1540 ------- 0 17.1301 18.893 15 7702
+ 0.233034 17 18 tcp 1540 ------- 0 17.1301 18.893 16 7703
+ 0.233162 17 18 tcp 1540 ------- 0 17.1301 18.893 17 7713
d 0.233162 17 18 tcp 1540 ------- 0 17.1301 18.893 17 7713
- 0.235762 17 18 ack 40 ------- 0 17.1179 18.311 3 7132
- 0.23589 17 18 ack 40 ------- 0 17.1179 18.311 4 7302
- 0.236018 17 18 ack 40 ------- 0 17.1193 18.325 0 7307
- 0.236146 17 18 ack 40 ------- 0 15.1098 18.269 3 5562
- 0.236274 17 18 ack 40 ------- 0 17.1179 18.311 5 7497
- 0.236402 17 18 ack 40 ------- 0 1.752 18.28 1 5696
- 0.23653 17 18 ack 40 ------- 0 17.1179 18.311 6 7697
- 0.236658 17 18 tcp 1540 ------- 0 17.1301 18.893 15 7702
r 0.236776 17 18 tcp 1540 ------- 0 17.1296 18.888 5 6942
r 0.236904 17 18 ack 40 ------- 0 17.1179 18.311 3 7132
r 0.237032 17 18 ack 40 ------- 0 17.1179 18.311 4 7302
r 0.23716 17 18 ack 40 ------- 0 17.1193 18.325 0 7307
r 0.237288 17 18 ack 40 ------- 0 15.1098 18.269 3 5562
r 0.237416 17 18 ack 40 ------- 0 17.1179 18.311 5 7497
r 0.237544 17 18 ack 40 ------- 0 1.752 18.28 1 5696
r 0.237672 17 18 ack 40 ------- 0 17.1179 18.311 6 7697
- 0.241586 17 18 tcp 1540 ------- 0 17.1301 18.893 16 7703
r 0.2426 17 18 tcp 1540 ------- 0 17.1301 18.893 15 7702
+ 0.243146 17 18 tcp 1540 ------- 0 17.1296 18.888 7 8061
+ 0.243146 17 18 tcp 1540 ------- 0 17.1296 18.888 8 8062
+ 0.243274 17 18 tcp 1540 ------- 0 17.1296 18.888 9 8064
- 0.246514 17 18 tcp 1540 ------- 0 17.1296 18.888 7 8061
r 0.247528 17 18 tcp 1540 ------- 0 17.1301 18.893 16 7703
+ 0.248202 17 18 ack 40 ------- 0 17.1179 18.311 7 8213
- 0.251442 17 18 tcp 1540 ------- 0 17.1296 18.888 8 8062
r 0.252456 17 18 tcp 1540 ------- 0 17.1296 18.888 7 8061
+ 0.25313 17 18 ack 40 ------- 0 17.1179 18.311 8 8397
- 0.25637 17 18 tcp 1540 ------- 0 17.1296 18.888 9 8064
r 0.257384 17 18 tcp 1540 ------- 0 17.1296 18.888 8 8062
+ 0.258058 17 18 ack 40 ------- 0 17.1179 18.311 9 8573
+ 0.260474 17 18 ack 40 ------- 0 1.752 18.28 2 6076
- 0.261298 17 18 ack 40 ------- 0 17.1179 18.311 7 8213
- 0.261426 17 18 ack 40 ------- 0 17.1179 18.311 8 8397
- 0.261554 17 18 ack 40 ------- 0 17.1179 18.311 9 8573
- 0.261682 17 18 ack 40 ------- 0 1.752 18.28 2 6076
r 0.262312 17 18 tcp 1540 ------- 0 17.1296 18.888 9 8064
r 0.26244 17 18 ack 40 ------- 0 17.1179 18.311 7 8213
r 0.262568 17 18 ack 40 ------- 0 17.1179 18.311 8 8397
r 0.262696 17 18 ack 40 ------- 0 17.1179 18.311 9 8573
r 0.262824 17 18 ack 40 ------- 0 1.752 18.28 2 6076
+ 0.262986 17 18 ack 40 ------- 0 17.1179 18.311 10 8760
- 0.262986 17 18 ack 40 ------- 0 17.1179 18.311 10 8760
r 0.264127 17 18 ack 40 ------- 0 17.1179 18.311 10 8760
+ 0.267914 17 18 ack 40 ------- 0 17.1193 18.325 1 8940
- 0.267914 17 18 ack 40 ------- 0 17.1193 18.325 1 8940
r 0.269055 17 18 ack 40 ------- 0 17.1193 18.325 1 8940
+ 0.271226 17 18 tcp 40 ------- 0 0.1392 22.665 0 8791
- 0.271226 17 18 tcp 40 ------- 0 0.1392 22.665 0 8791
r 0.272368 17 18 tcp 40 ------- 0 0.1392 22.665 0 8791
+ 0.272842 17 18 ack 40 ------- 0 17.1193 18.325 2 9161
- 0.272842 17 18 ack 40 ------- 0 17.1193 18.325 2 9161
r 0.273983 17 18 ack 40 ------- 0 17.1193 18.325 2 9161
+ 0.279162 17 18 tcp 40 ------- 0 17.1392 22.973 0 9466
- 0.279162 17 18 tcp 40 ------- 0 17.1392 22.973 0 9466
+ 0.279346 17 18 tcp 40 ------- 0 17.284 10.633 0 9469
- 0.279346 17 18 tcp 40 ------- 0 17.284 10.633 0 9469
r 0.280303 17 18 tcp 40 ------- 0 17.1392 22.973 0 9466
r 0.280487 17 18 tcp 40 ------- 0 17.284 10.633 0 9469
+ 0.292554 17 18 ack 40 ------- 0 17.1179 18.311 11 9945
- 0.292554 17 18 ack 40 ------- 0 17.1179 18.311 11 9945
r 0.293695 17 18 ack 40 ------- 0 17.1179 18.311 11 9945
+ 0.295003 17 18 tcp 40 ------- 0 21.371 18.962 0 5446
- 0.295003 17 18 tcp 40 ------- 0 21.371 18.962 0 5446
r 0.296144 17 18 tcp 40 ------- 0 21.371 18.962 0 5446
+ 0.297482 17 18 ack 40 ------- 0 17.1179 18.311 12 10196
- 0.297482 17 18 ack 40 ------- 0 17.1179 18.311 12 10196
r 0.298623 17 18 ack 40 ------- 0 17.1179 18.311 12 10196
+ 0.298903 17 18 tcp 1540 ------- 0 17.293 10.642 1 10238
- 0.298903 17 18 tcp 1540 ------- 0 17.293 10.642 1 10238
+ 0.298903 17 18 tcp 1540 ------- 0 17.293 10.642 2 10239
- 0.303831 17 18 tcp 1540 ------- 0 17.293 10.642 2 10239
r 0.304845 17 18 tcp 1540 ------- 0 17.293 10.642 1 10238
r 0.309773 17 18 tcp 1540 ------- 0 17.293 10.642 2 10239
+ 0.312266 17 18 ack 40 ------- 0 17.1179 18.311 13 10792
- 0.312266 17 18 ack 40 ------- 0 17.1179 18.311 13 10792
r 0.313407 17 18 ack 40 ------- 0 17.1179 18.311 13 10792
+ 0.317194 17 18 ack 40 ------- 0 17.1179 18.311 14 10982
- 0.317194 17 18 ack 40 ------- 0 17.1179 18.311 14 10982
+ 0.31745 17 18 tcp 1540 ------- 0 17.1301 18.893 18 10987
- 0.31745 17 18 tcp 1540 ------- 0 17.1301 18.893 18 10987
+ 0.317578 17 18 tcp 1540 ---A--- 0 17.1301 18.893 8 10988
+ 0.317706 17 18 tcp 1540 ------- 0 17.1296 18.888 10 10991
+ 0.317834 17 18 tcp 1540 ---A--- 0 17.1296 18.888 4 10997
r 0.318335 17 18 ack 40 ------- 0 17.1179 18.311 14 10982
+ 0.320874 17 18 tcp 40 ------- 0 14.1451 18.754 0 9528
- 0.322378 17 18 tcp 1540 ---A--- 0 17.1301 18.893 8 10988
+ 0.32289 17 18 ack 40 ------- 0 17.1179 18.311 15 11228
r 0.323391 17 18 tcp 1540 ------- 0 17.1301 18.893 18 10987
+ 0.324994 17 18 tcp 40 ------- 0 17.308 11.805 0 11305
- 0.327306 17 18 tcp 1540 ------- 0 17.1296 18.888 10 10991
+ 0.327818 17 18 ack 40 ------- 0 17.1179 18.311 16 11414
r 0.328319 17 18 tcp 1540 ---A--- 0 17.1301 18.893 8 10988
- 0.332234 17 18 tcp 1540 ---A--- 0 17.1296 18.888 4 10997
+ 0.332746 17 18 ack 40 ------- 0 17.1179 18.311 17 11618
r 0.333247 17 18 tcp 1540 ------- 0 17.1296 18.888 10 10991
- 0.337162 17 18 tcp 40 ------- 0 14.1451 18.754 0 9528
- 0.33729 17 18 ack 40 ------- 0 17.1179 18.311 15 11228
- 0.337418 17 18 tcp 40 ------- 0 17.308 11.805 0 11305
- 0.337546 17 18 ack 40 ------- 0 17.1179 18.311 16 11414
- 0.337674 17 18 ack 40 ------- 0 17.1179 18.311 17 11618
+ 0.337674 17 18 ack 40 ------- 0 17.1179 18.311 18 11832
- 0.337802 17 18 ack 40 ------- 0 17.1179 18.311 18 11832
r 0.338175 17 18 tcp 1540 ---A--- 0 17.1296 18.888 4 10997
r 0.338303 17 18 tcp 40 ------- 0 14.1451 18.754 0 9528
r 0.338431 17 18 ack 40 ------- 0 17.1179 18.311 15 11228
r 0.338559 17 18 tcp 40 ------- 0 17.308 11.805 0 11305
r 0.338687 17 18 ack 40 ------- 0 17.1179 18.311 16 11414
r 0.338815 17 18 ack 40 ------- 0 17.1179 18.311 17 11618
r 0.338943 17 18 ack 40 ------- 0 17.1179 18.311 18 11832
+ 0.342602 17 18 ack 40 ------- 0 17.1179 18.311 19 12037
- 0.342602 17 18 ack 40 ------- 0 17.1179 18.311 19 12037
r 0.343743 17 18 ack 40 ------- 0 17.1179 18.311 19 12037
+ 0.34753 17 18 ack 40 ------- 0 17.1179 18.311 20 12222
- 0.34753 17 18 ack 40 ------- 0 17.1179 18.311 20 12222
r 0.348671 17 18 ack 40 ------- 0 17.1179 18.311 20 12222
+ 0.357002 17 18 tcp 40 ------- 0 1.1905 22.667 0 10715
- 0.357002 17 18 tcp 40 ------- 0 1.1905 22.667 0 10715
r 0.358143 17 18 tcp 40 ------- 0 1.1905 22.667 0 10715
+ 0.359801 17 18 tcp 40 ------- 0 17.1389 22.970 0 12685
- 0.359801 17 18 tcp 40 ------- 0 17.1389 22.970 0 12685
r 0.360942 17 18 tcp 40 ------- 0 17.1389 22.970 0 12685
+ 0.362314 17 18 ack 40 ------- 0 17.1179 18.311 21 12800
- 0.362314 17 18 ack 40 ------- 0 17.1179 18.311 21 12800
r 0.363455 17 18 ack 40 ------- 0 17.1179 18.311 21 12800
+ 0.364968 17 18 tcp 40 ------- 0 15.1316 18.776 0 11386
- 0.364968 17 18 tcp 40 ------- 0 15.1316 18.776 0 11386
r 0.366109 17 18 tcp 40 ------- 0 15.1316 18.776 0 11386
+ 0.367242 17 18 ack 40 ------- 0 17.1179 18.311 22 12972
- 0.367242 17 18 ack 40 ------- 0 17.1179 18.311 22 12972
r 0.368383 17 18 ack 40 ------- 0 17.1179 18.311 22 12972
+ 0.37217 17 18 ack 40 ------- 0 17.1193 18.325 3 13162
- 0.37217 17 18 ack 40 ------- 0 17.1193 18.325 3 13162
r 0.373311 17 18 ack 40 ------- 0 17.1193 18.325 3 13162
+ 0.373373 17 18 tcp 40 ------- 0 19.548 18.946 0 3945
- 0.373373 17 18 tcp 40 ------- 0 19.548 18.946 0 3945
r 0.374515 17 18 tcp 40 ------- 0 19.548 18.946 0 3945
+ 0.377098 17 18 ack 40 ------- 0 17.1193 18.325 4 13374
- 0.377098 17 18 ack 40 ------- 0 17.1193 18.325 4 13374
r 0.378239 17 18 ack 40 ------- 0 17.1193 18.325 4 13374
+ 0.379242 17 18 tcp 40 ------- 0 17.1302 18.894 0 13467
- 0.379242 17 18 tcp 40 ------- 0 17.1302 18.894 0 13467
r 0.380384 17 18 tcp 40 ------- 0 17.1302 18.894 0 13467
+ 0.381599 17 18 tcp 1540 ---A--- 0 17.1277 18.869 1 13534
- 0.381599 17 18 tcp 1540 ---A--- 0 17.1277 18.869 1 13534
+ 0.381727 17 18 tcp 1540 ---A--- 0 17.1285 18.877 22 13538
+ 0.382026 17 18 ack 40 ------- 0 17.1193 18.325 5 13561
+ 0.382246 17 18 tcp 40 ------- 0 0.1231 18.340 0 13357
+ 0.382374 17 18 tcp 1540 ------- 0 17.293 10.642 3 13572
+ 0.382374 17 18 tcp 1540 ------- 0 17.293 10.642 4 13573
+ 0.384887 17 18 tcp 1540 ------- 0 17.293 10.642 5 13683
+ 0.384887 17 18 tcp 1540 ------- 0 17.293 10.642 6 13684
- 0.386527 17 18 tcp 1540 ---A--- 0 17.1285 18.877 22 13538
+ 0.386954 17 18 ack 40 ------- 0 17.1193 18.325 6 13765
r 0.38754 17 18 tcp 1540 ---A--- 0 17.1277 18.869 1 13534
+ 0.388807 17 18 ack 40 ------- 0 17.659 10.887 0 13866
- 0.391455 17 18 ack 40 ------- 0 17.1193 18.325 5 13561
- 0.391583 17 18 tcp 40 ------- 0 0.1231 18.340 0 13357
- 0.391711 17 18 tcp 1540 ------- 0 17.293 10.642 3 13572
+ 0.391882 17 18 ack 40 ------- 0 17.1254 22.532 1 14010
r 0.392468 17 18 tcp 1540 ---A--- 0 17.1285 18.877 22 13538
r 0.392596 17 18 ack 40 ------- 0 17.1193 18.325 5 13561
r 0.392724 17 18 tcp 40 ------- 0 0.1231 18.340 0 13357
- 0.396639 17 18 tcp 1540 ------- 0 17.293 10.642 4 13573
+ 0.39681 17 18 ack 40 ------- 0 17.1179 18.311 23 14200
r 0.397652 17 18 tcp 1540 ------- 0 17.293 10.642 3 13572
+ 0.3979 17 18 tcp 40 ------- 0 17.300 11.797 0 14240
+ 0.401526 17 18 tcp 40 ------- 0 1.1915 22.677 0 13272
- 0.401567 17 18 tcp 1540 ------- 0 17.293 10.642 5 13683
+ 0.401738 17 18 ack 40 ------- 0 17.1179 18.311 24 14414
+ 0.401782 17 18 tcp 40 ------- 0 1.1908 22.670 0 13442
+ 0.401944 17 18 tcp 40 ------- 0 17.1293 18.885 0 14426
d 0.401944 17 18 tcp 40 ------- 0 17.1293 18.885 0 14426
r 0.40258 17 18 tcp 1540 ------- 0 17.293 10.642 4 13573
+ 0.406183 17 18 ack 40 ------- 0 17.643 9.1160 0 14594
d 0.406183 17 18 ack 40 ------- 0 17.643 9.1160 0 14594
+ 0.406411 17 18 tcp 40 ------- 0 0.1227 18.336 0 14530
d 0.406411 17 18 tcp 40 ------- 0 0.1227 18.336 0 14530
- 0.406495 17 18 tcp 1540 ------- 0 17.293 10.642 6 13684
+ 0.40705 17 18 ack 40 ------- 0 17.1179 18.311 25 14621
r 0.407508 17 18 tcp 1540 ------- 0 17.293 10.642 5 13683
- 0.411423 17 18 ack 40 ------- 0 17.1193 18.325 6 13765
- 0.411551 17 18 ack 40 ------- 0 17.659 10.887 0 13866
- 0.411679 17 18 ack 40 ------- 0 17.1254 22.532 1 14010
- 0.411807 17 18 ack 40 ------- 0 17.1179 18.311 23 14200
- 0.411935 17 18 tcp 40 ------- 0 17.300 11.797 0 14240
+ 0.411978 17 18 ack 40 ------- 0 17.1179 18.311 26 14814
- 0.412063 17 18 tcp 40 ------- 0 1.1915 22.677 0 13272
- 0.412191 17 18 ack 40 ------- 0 17.1179 18.311 24 14414