+ 0.010003 13 14 rtProtoDV 26 ------- 0 13.1541 14.1673 -1 292
- 0.010003 13 14 rtProtoDV 26 ------- 0 13.1541 14.1673 -1 292
+ 0.010325 13 14 rtProtoDV 26 ------- 0 13.1541 14.1673 -1 307
- 0.010325 13 14 rtProtoDV 26 ------- 0 13.1541 14.1673 -1 307
r 0.010778 13 14 rtProtoDV 26 ------- 0 13.1541 14.1673 -1 292
r 0.0111 13 14 rtProtoDV 26 ------- 0 13.1541 14.1673 -1 307
+ 0.012366 13 14 rtProtoDV 26 ------- 0 13.1541 14.1673 -1 441
- 0.012366 13 14 rtProtoDV 26 ------- 0 13.1541 14.1673 -1 441
+ 0.013042 13 14 rtProtoDV 26 ------- 0 13.1541 14.1673 -1 472
- 0.013042 13 14 rtProtoDV 26 ------- 0 13.1541 14.1673 -1 472
r 0.013142 13 14 rtProtoDV 26 ------- 0 13.1541 14.1673 -1 441
+ 0.013412 13 14 rtProtoDV 26 ------- 0 13.1541 14.1673 -1 490
- 0.013412 13 14 rtProtoDV 26 ------- 0 13.1541 14.1673 -1 490
r 0.013817 13 14 rtProtoDV 26 ------- 0 13.1541 14.1673 -1 472
+ 0.014161 13 14 rtProtoDV 26 ------- 0 13.1541 14.1673 -1 523
- 0.014161 13 14 rtProtoDV 26 ------- 0 13.1541 14.1673 -1 523
r 0.014187 13 14 rtProtoDV 26 ------- 0 13.1541 14.1673 -1 490
r 0.014936 13 14 rtProtoDV 26 ------- 0 13.1541 14.1673 -1 523
+ 0.016718 13 14 ack 40 ------- 0 13.839 15.398 0 624
- 0.016718 13 14 ack 40 ------- 0 13.839 15.398 0 624
r 0.017538 13 14 ack 40 ------- 0 13.839 15.398 0 624
+ 0.021397 13 14 rtProtoDV 26 ------- 0 13.1541 14.1673 -1 789
- 0.021397 13 14 rtProtoDV 26 ------- 0 13.1541 14.1673 -1 789
r 0.022173 13 14 rtProtoDV 26 ------- 0 13.1541 14.1673 -1 789
+ 0.025972 13 14 tcp 40 ------- 0 13.1308 17.953 0 892
- 0.025972 13 14 tcp 40 ------- 0 13.1308 17.953 0 892
r 0.026792 13 14 tcp 40 ------- 0 13.1308 17.953 0 892
+ 0.028615 13 14 ack 40 ------- 0 13.839 15.398 1 954
- 0.028615 13 14 ack 40 ------- 0 13.839 15.398 1 954
+ 0.029143 13 14 tcp 40 ------- 0 13.1325 17.970 0 974
- 0.029143 13 14 tcp 40 ------- 0 13.1325 17.970 0 974
r 0.029435 13 14 ack 40 ------- 0 13.839 15.398 1 954
+ 0.029753 13 14 tcp 40 ------- 0 13.1370 17.1015 0 988
- 0.029753 13 14 tcp 40 ------- 0 13.1370 17.1015 0 988
r 0.029963 13 14 tcp 40 ------- 0 13.1325 17.970 0 974
r 0.030573 13 14 tcp 40 ------- 0 13.1370 17.1015 0 988
+ 0.033543 13 14 ack 40 ------- 0 13.839 15.398 2 1075
- 0.033543 13 14 ack 40 ------- 0 13.839 15.398 2 1075
+ 0.033671 13 14 ack 40 ------- 0 13.611 4.1055 0 1078
- 0.033671 13 14 ack 40 ------- 0 13.611 4.1055 0 1078
r 0.034363 13 14 ack 40 ------- 0 13.839 15.398 2 1075
r 0.034491 13 14 ack 40 ------- 0 13.611 4.1055 0 1078
+ 0.036264 13 14 tcp 40 ------- 0 13.1354 17.999 0 1141
- 0.036264 13 14 tcp 40 ------- 0 13.1354 17.999 0 1141
r 0.037084 13 14 tcp 40 ------- 0 13.1354 17.999 0 1141
+ 0.042828 13 14 ack 40 ------- 0 13.839 15.398 3 1302
- 0.042828 13 14 ack 40 ------- 0 13.839 15.398 3 1302
r 0.043648 13 14 ack 40 ------- 0 13.839 15.398 3 1302
+ 0.045122 13 14 tcp 40 ------- 0 13.1461 20.1103 0 1366
- 0.045122 13 14 tcp 40 ------- 0 13.1461 20.1103 0 1366
r 0.045942 13 14 tcp 40 ------- 0 13.1461 20.1103 0 1366
+ 0.047756 13 14 ack 40 ------- 0 13.839 15.398 4 1424
- 0.047756 13 14 ack 40 ------- 0 13.839 15.398 4 1424
r 0.048576 13 14 ack 40 ------- 0 13.839 15.398 4 1424
+ 0.048622 13 14 tcp 40 ------- 0 13.1259 17.904 0 1448
- 0.048622 13 14 tcp 40 ------- 0 13.1259 17.904 0 1448
+ 0.048856 13 14 tcp 40 ------- 0 13.1319 17.964 0 1454
- 0.048856 13 14 tcp 40 ------- 0 13.1319 17.964 0 1454
r 0.049442 13 14 tcp 40 ------- 0 13.1259 17.904 0 1448
r 0.049676 13 14 tcp 40 ------- 0 13.1319 17.964 0 1454
+ 0.052684 13 14 ack 40 ------- 0 13.839 15.398 5 1554
- 0.052684 13 14 ack 40 ------- 0 13.839 15.398 5 1554
r 0.053504 13 14 ack 40 ------- 0 13.839 15.398 5 1554
+ 0.057612 13 14 ack 40 ------- 0 13.839 15.398 6 1687
- 0.057612 13 14 ack 40 ------- 0 13.839 15.398 6 1687
+ 0.05774 13 14 ack 40 ------- 0 13.603 4.1047 0 1689
- 0.05774 13 14 ack 40 ------- 0 13.603 4.1047 0 1689
+ 0.057868 13 14 ack 40 ------- 0 13.388 0.1018 0 1692
- 0.057868 13 14 ack 40 ------- 0 13.388 0.1018 0 1692
r 0.058432 13 14 ack 40 ------- 0 13.839 15.398 6 1687
r 0.05856 13 14 ack 40 ------- 0 13.603 4.1047 0 1689
r 0.058688 13 14 ack 40 ------- 0 13.388 0.1018 0 1692
+ 0.064346 13 14 tcp 40 ------- 0 13.1476 20.1118 0 1874
- 0.064346 13 14 tcp 40 ------- 0 13.1476 20.1118 0 1874
r 0.065166 13 14 tcp 40 ------- 0 13.1476 20.1118 0 1874
+ 0.06526 13 14 ack 40 ------- 0 13.611 4.1055 1 1904
- 0.06526 13 14 ack 40 ------- 0 13.611 4.1055 1 1904
r 0.06608 13 14 ack 40 ------- 0 13.611 4.1055 1 1904
+ 0.070188 13 14 ack 40 ------- 0 13.839 15.398 7 2054
- 0.070188 13 14 ack 40 ------- 0 13.839 15.398 7 2054
r 0.071008 13 14 ack 40 ------- 0 13.839 15.398 7 2054
+ 0.071745 13 14 tcp 40 ------- 0 13.1279 17.924 0 2110
- 0.071745 13 14 tcp 40 ------- 0 13.1279 17.924 0 2110
r 0.072565 13 14 tcp 40 ------- 0 13.1279 17.924 0 2110
+ 0.075116 13 14 ack 40 ------- 0 13.839 15.398 8 2221
- 0.075116 13 14 ack 40 ------- 0 13.839 15.398 8 2221
r 0.075936 13 14 ack 40 ------- 0 13.839 15.398 8 2221
+ 0.0803 13 14 ack 40 ------- 0 13.611 4.1055 2 2402
- 0.0803 13 14 ack 40 ------- 0 13.611 4.1055 2 2402
+ 0.080428 13 14 tcp 1540 ------- 0 13.1308 17.953 1 2412
+ 0.080428 13 14 tcp 1540 ------- 0 13.1308 17.953 2 2413
- 0.080428 13 14 tcp 1540 ------- 0 13.1308 17.953 1 2412
+ 0.080556 13 14 ack 40 ------- 0 13.421 0.1051 0 2415
+ 0.080684 13 14 tcp 1540 ------- 0 13.1325 17.970 1 2416
+ 0.080684 13 14 tcp 1540 ------- 0 13.1325 17.970 2 2417
r 0.08112 13 14 ack 40 ------- 0 13.611 4.1055 2 2402
+ 0.083221 13 14 rtProtoDV 26 ------- 0 13.1541 14.1673 -1 2501
- 0.085356 13 14 tcp 1540 ------- 0 13.1308 17.953 2 2413
+ 0.085832 13 14 tcp 40 ------- 0 13.30 0.325 0 2589
r 0.086048 13 14 tcp 1540 ------- 0 13.1308 17.953 1 2412
+ 0.086716 13 14 tcp 40 ------- 0 13.11 0.306 0 2618
- 0.090284 13 14 ack 40 ------- 0 13.421 0.1051 0 2415
- 0.090412 13 14 tcp 1540 ------- 0 13.1325 17.970 1 2416
r 0.090976 13 14 tcp 1540 ------- 0 13.1308 17.953 2 2413
r 0.091104 13 14 ack 40 ------- 0 13.421 0.1051 0 2415
- 0.09534 13 14 tcp 1540 ------- 0 13.1325 17.970 2 2417
r 0.096032 13 14 tcp 1540 ------- 0 13.1325 17.970 1 2416
- 0.100268 13 14 rtProtoDV 26 ------- 0 13.1541 14.1673 -1 2501
- 0.100351 13 14 tcp 40 ------- 0 13.30 0.325 0 2589
+ 0.10038 13 14 tcp 40 ------- 0 13.9 0.304 0 3056
- 0.100479 13 14 tcp 40 ------- 0 13.11 0.306 0 2618
+ 0.100524 13 14 tcp 1540 ------- 0 13.1370 17.1015 1 3064
+ 0.100524 13 14 tcp 1540 ------- 0 13.1370 17.1015 2 3065
- 0.100607 13 14 tcp 40 ------- 0 13.9 0.304 0 3056
- 0.100735 13 14 tcp 1540 ------- 0 13.1370 17.1015 1 3064
r 0.10096 13 14 tcp 1540 ------- 0 13.1325 17.970 2 2417
r 0.101043 13 14 rtProtoDV 26 ------- 0 13.1541 14.1673 -1 2501
r 0.101171 13 14 tcp 40 ------- 0 13.30 0.325 0 2589
r 0.101299 13 14 tcp 40 ------- 0 13.11 0.306 0 2618
r 0.101427 13 14 tcp 40 ------- 0 13.9 0.304 0 3056
- 0.105663 13 14 tcp 1540 ------- 0 13.1370 17.1015 2 3065
r 0.106355 13 14 tcp 1540 ------- 0 13.1370 17.1015 1 3064
+ 0.110213 13 14 tcp 40 ------- 0 13.1508 21.764 0 3383
- 0.110591 13 14 tcp 40 ------- 0 13.1508 21.764 0 3383
r 0.111283 13 14 tcp 1540 ------- 0 13.1370 17.1015 2 3065
r 0.111411 13 14 tcp 40 ------- 0 13.1508 21.764 0 3383
+ 0.11305 13 14 tcp 40 ------- 0 13.1331 17.976 0 3481
- 0.11305 13 14 tcp 40 ------- 0 13.1331 17.976 0 3481
r 0.11387 13 14 tcp 40 ------- 0 13.1331 17.976 0 3481
+ 0.115391 13 14 ack 40 ------- 0 13.839 15.398 9 3539
- 0.115391 13 14 ack 40 ------- 0 13.839 15.398 9 3539
r 0.116211 13 14 ack 40 ------- 0 13.839 15.398 9 3539
+ 0.120319 13 14 ack 40 ------- 0 13.839 15.398 10 3677
- 0.120319 13 14 ack 40 ------- 0 13.839 15.398 10 3677
+ 0.120447 13 14 ack 40 ------- 0 13.364 0.994 0 3681
- 0.120447 13 14 ack 40 ------- 0 13.364 0.994 0 3681
r 0.121139 13 14 ack 40 ------- 0 13.839 15.398 10 3677
r 0.121267 13 14 ack 40 ------- 0 13.364 0.994 0 3681
+ 0.124255 13 14 tcp 40 ------- 0 13.1518 21.774 0 3809
- 0.124255 13 14 tcp 40 ------- 0 13.1518 21.774 0 3809
r 0.125076 13 14 tcp 40 ------- 0 13.1518 21.774 0 3809
+ 0.135231 13 14 ack 40 ------- 0 13.839 15.398 10 4178
- 0.135231 13 14 ack 40 ------- 0 13.839 15.398 10 4178
r 0.136051 13 14 ack 40 ------- 0 13.839 15.398 10 4178
+ 0.139358 13 14 tcp 40 ------- 0 13.1318 17.963 0 4291
- 0.139358 13 14 tcp 40 ------- 0 13.1318 17.963 0 4291
+ 0.140159 13 14 ack 40 ------- 0 13.839 15.398 10 4328
- 0.140159 13 14 ack 40 ------- 0 13.839 15.398 10 4328
r 0.140178 13 14 tcp 40 ------- 0 13.1318 17.963 0 4291
r 0.140979 13 14 ack 40 ------- 0 13.839 15.398 10 4328
+ 0.144695 13 14 tcp 40 ------- 0 13.1482 20.1124 0 4475
- 0.144695 13 14 tcp 40 ------- 0 13.1482 20.1124 0 4475
r 0.145515 13 14 tcp 40 ------- 0 13.1482 20.1124 0 4475
+ 0.150412 13 14 tcp 40 ------- 0 13.1210 17.855 0 4698
- 0.150412 13 14 tcp 40 ------- 0 13.1210 17.855 0 4698
r 0.151232 13 14 tcp 40 ------- 0 13.1210 17.855 0 4698
+ 0.155199 13 14 ack 40 ------- 0 13.603 4.1047 1 4858
- 0.155199 13 14 ack 40 ------- 0 13.603 4.1047 1 4858
r 0.156019 13 14 ack 40 ------- 0 13.603 4.1047 1 4858
+ 0.159805 13 14 tcp 40 ------- 0 13.1470 20.1112 0 4999
- 0.159805 13 14 tcp 40 ------- 0 13.1470 20.1112 0 4999
+ 0.160127 13 14 ack 40 ------- 0 13.603 4.1047 2 5010
- 0.160127 13 14 ack 40 ------- 0 13.603 4.1047 2 5010
r 0.160625 13 14 tcp 40 ------- 0 13.1470 20.1112 0 4999
r 0.160947 13 14 ack 40 ------- 0 13.603 4.1047 2 5010
+ 0.165055 13 14 ack 40 ------- 0 13.611 4.1055 3 5222
- 0.165055 13 14 ack 40 ------- 0 13.611 4.1055 3 5222
r 0.165875 13 14 ack 40 ------- 0 13.611 4.1055 3 5222
+ 0.169983 13 14 ack 40 ------- 0 13.611 4.1055 4 5414
- 0.169983 13 14 ack 40 ------- 0 13.611 4.1055 4 5414
r 0.170803 13 14 ack 40 ------- 0 13.611 4.1055 4 5414
+ 0.17168 13 14 tcp 40 ------- 0 13.107 3.446 0 5512
- 0.17168 13 14 tcp 40 ------- 0 13.107 3.446 0 5512
r 0.1725 13 14 tcp 40 ------- 0 13.107 3.446 0 5512
+ 0.174911 13 14 ack 40 ------- 0 13.839 15.398 10 5646
- 0.174911 13 14 ack 40 ------- 0 13.839 15.398 10 5646
+ 0.175039 13 14 ack 40 ------- 0 13.714 6.1118 0 5655
- 0.175039 13 14 ack 40 ------- 0 13.714 6.1118 0 5655
r 0.175731 13 14 ack 40 ------- 0 13.839 15.398 10 5646
r 0.175859 13 14 ack 40 ------- 0 13.714 6.1118 0 5655
+ 0.177962 13 14 tcp 40 ------- 0 13.172 6.583 0 5750
- 0.177962 13 14 tcp 40 ------- 0 13.172 6.583 0 5750
r 0.178782 13 14 tcp 40 ------- 0 13.172 6.583 0 5750
+ 0.180095 13 14 ack 40 ------- 0 13.842 15.401 0 5819
- 0.180095 13 14 ack 40 ------- 0 13.842 15.401 0 5819
r 0.180915 13 14 ack 40 ------- 0 13.842 15.401 0 5819
+ 0.184875 13 14 tcp 40 ------- 0 13.92 3.431 0 5968
- 0.184875 13 14 tcp 40 ------- 0 13.92 3.431 0 5968
+ 0.185176 13 14 tcp 40 ------- 0 13.1227 17.872 0 5980
- 0.185176 13 14 tcp 40 ------- 0 13.1227 17.872 0 5980
r 0.185696 13 14 tcp 40 ------- 0 13.92 3.431 0 5968
r 0.185996 13 14 tcp 40 ------- 0 13.1227 17.872 0 5980
+ 0.189951 13 14 ack 40 ------- 0 13.388 0.1018 1 6141
- 0.189951 13 14 ack 40 ------- 0 13.388 0.1018 1 6141
+ 0.190079 13 14 ack 40 ------- 0 13.609 4.1053 0 6144
- 0.190079 13 14 ack 40 ------- 0 13.609 4.1053 0 6144
+ 0.190207 13 14 ack 40 ------- 0 13.443 0.1073 0 6149
- 0.190207 13 14 ack 40 ------- 0 13.443 0.1073 0 6149
+ 0.190335 13 14 ack 40 ------- 0 13.1060 20.446 0 6155
- 0.190335 13 14 ack 40 ------- 0 13.1060 20.446 0 6155
+ 0.190463 13 14 ack 40 ------- 0 13.513 1.1417 0 6161
- 0.190463 13 14 ack 40 ------- 0 13.513 1.1417 0 6161
r 0.190771 13 14 ack 40 ------- 0 13.388 0.1018 1 6141
r 0.190899 13 14 ack 40 ------- 0 13.609 4.1053 0 6144
r 0.191027 13 14 ack 40 ------- 0 13.443 0.1073 0 6149
r 0.191155 13 14 ack 40 ------- 0 13.1060 20.446 0 6155
r 0.191283 13 14 ack 40 ------- 0 13.513 1.1417 0 6161
+ 0.195519 13 14 ack 40 ------- 0 13.839 15.398 10 6319
- 0.195519 13 14 ack 40 ------- 0 13.839 15.398 10 6319
r 0.196339 13 14 ack 40 ------- 0 13.839 15.398 10 6319
+ 0.198507 13 14 tcp 40 ------- 0 13.175 6.586 0 6459
- 0.198507 13 14 tcp 40 ------- 0 13.175 6.586 0 6459
r 0.199327 13 14 tcp 40 ------- 0 13.175 6.586 0 6459
+ 0.200447 13 14 ack 40 ------- 0 13.839 15.398 10 6528
- 0.200447 13 14 ack 40 ------- 0 13.839 15.398 10 6528
r 0.201267 13 14 ack 40 ------- 0 13.839 15.398 10 6528
+ 0.205375 13 14 ack 40 ------- 0 13.839 15.398 10 6710
- 0.205375 13 14 ack 40 ------- 0 13.839 15.398 10 6710
+ 0.206093 13 14 tcp 40 ------- 0 13.163 6.574 0 6738
- 0.206093 13 14 tcp 40 ------- 0 13.163 6.574 0 6738
r 0.206195 13 14 ack 40 ------- 0 13.839 15.398 10 6710
r 0.206913 13 14 tcp 40 ------- 0 13.163 6.574 0 6738
+ 0.210431 13 14 tcp 1540 ------- 0 13.1279 17.924 1 6862
- 0.210431 13 14 tcp 1540 ------- 0 13.1279 17.924 1 6862
+ 0.210431 13 14 tcp 1540 ------- 0 13.1279 17.924 2 6863
+ 0.210559 13 14 ack 40 ------- 0 13.711 6.1115 0 6875
+ 0.214804 13 14 tcp 40 ------- 0 13.1311 17.956 0 7035
- 0.215359 13 14 tcp 1540 ------- 0 13.1279 17.924 2 6863
r 0.216051 13 14 tcp 1540 ------- 0 13.1279 17.924 1 6862
+ 0.216554 13 14 ack 40 ------- 0 13.820 14.313 0 7105
+ 0.217238 13 14 ack 40 ------- 0 13.603 4.1047 3 7124
- 0.220287 13 14 ack 40 ------- 0 13.711 6.1115 0 6875
- 0.220415 13 14 tcp 40 ------- 0 13.1311 17.956 0 7035
- 0.220543 13 14 ack 40 ------- 0 13.820 14.313 0 7105
- 0.220671 13 14 ack 40 ------- 0 13.603 4.1047 3 7124
r 0.220979 13 14 tcp 1540 ------- 0 13.1279 17.924 2 6863
r 0.221107 13 14 ack 40 ------- 0 13.711 6.1115 0 6875
r 0.221235 13 14 tcp 40 ------- 0 13.1311 17.956 0 7035
r 0.221363 13 14 ack 40 ------- 0 13.820 14.313 0 7105
r 0.221491 13 14 ack 40 ------- 0 13.603 4.1047 3 7124
+ 0.222166 13 14 ack 40 ------- 0 13.603 4.1047 4 7295
- 0.222166 13 14 ack 40 ------- 0 13.603 4.1047 4 7295
r 0.222986 13 14 ack 40 ------- 0 13.603 4.1047 4 7295
+ 0.224614 13 14 tcp 40 ------- 0 13.1142 15.949 0 7384
- 0.224614 13 14 tcp 40 ------- 0 13.1142 15.949 0 7384
r 0.225434 13 14 tcp 40 ------- 0 13.1142 15.949 0 7384
+ 0.226983 13 14 ack 40 ------- 0 13.820 14.313 1 7472
- 0.226983 13 14 ack 40 ------- 0 13.820 14.313 1 7472
r 0.227803 13 14 ack 40 ------- 0 13.820 14.313 1 7472
+ 0.230849 13 14 tcp 40 ------- 0 13.1504 21.760 0 7614
- 0.230849 13 14 tcp 40 ------- 0 13.1504 21.760 0 7614
+ 0.231569 13 14 tcp 40 ------- 0 13.1137 14.918 0 7638
- 0.231569 13 14 tcp 40 ------- 0 13.1137 14.918 0 7638
r 0.231669 13 14 tcp 40 ------- 0 13.1504 21.760 0 7614
+ 0.231911 13 14 ack 40 ------- 0 13.820 14.313 2 7652
- 0.231911 13 14 ack 40 ------- 0 13.820 14.313 2 7652
+ 0.232022 13 14 ack 40 ------- 0 13.603 4.1047 5 7662
- 0.232039 13 14 ack 40 ------- 0 13.603 4.1047 5 7662
r 0.232389 13 14 tcp 40 ------- 0 13.1137 14.918 0 7638
+ 0.232639 13 14 tcp 40 ------- 0 13.168 6.579 0 7690
- 0.232639 13 14 tcp 40 ------- 0 13.168 6.579 0 7690
r 0.232731 13 14 ack 40 ------- 0 13.820 14.313 2 7652
r 0.232859 13 14 ack 40 ------- 0 13.603 4.1047 5 7662
r 0.233459 13 14 tcp 40 ------- 0 13.168 6.579 0 7690
+ 0.236839 13 14 ack 40 ------- 0 13.820 14.313 3 7820
- 0.236839 13 14 ack 40 ------- 0 13.820 14.313 3 7820
+ 0.23695 13 14 ack 40 ------- 0 13.603 4.1047 6 7826
- 0.236967 13 14 ack 40 ------- 0 13.603 4.1047 6 7826
r 0.237659 13 14 ack 40 ------- 0 13.820 14.313 3 7820
r 0.237787 13 14 ack 40 ------- 0 13.603 4.1047 6 7826
+ 0.241767 13 14 ack 40 ------- 0 13.820 14.313 4 7997
- 0.241767 13 14 ack 40 ------- 0 13.820 14.313 4 7997
+ 0.241878 13 14 ack 40 ------- 0 13.839 15.398 10 8005
+ 0.241895 13 14 tcp 1540 ------- 0 13.1137 14.918 1 8006
+ 0.241895 13 14 tcp 1540 ------- 0 13.1137 14.918 2 8007
- 0.241895 13 14 ack 40 ------- 0 13.839 15.398 10 8005
- 0.242023 13 14 tcp 1540 ------- 0 13.1137 14.918 1 8006
r 0.242587 13 14 ack 40 ------- 0 13.820 14.313 4 7997
r 0.242715 13 14 ack 40 ------- 0 13.839 15.398 10 8005
+ 0.246806 13 14 ack 40 ------- 0 13.611 4.1055 5 8169
+ 0.246823 13 14 ack 40 ------- 0 13.820 14.313 5 8171
- 0.246951 13 14 tcp 1540 ------- 0 13.1137 14.918 2 8007
r 0.247643 13 14 tcp 1540 ------- 0 13.1137 14.918 1 8006
+ 0.247979 13 14 tcp 40 ------- 0 13.1510 21.766 0 8206
+ 0.251734 13 14 ack 40 ------- 0 13.839 15.398 13 8351
+ 0.251751 13 14 ack 40 ------- 0 13.820 14.313 6 8352
+ 0.251862 13 14 ack 40 ------- 0 13.553 1.1457 0 8356
- 0.251879 13 14 ack 40 ------- 0 13.611 4.1055 5 8169
- 0.252007 13 14 ack 40 ------- 0 13.820 14.313 5 8171
- 0.252135 13 14 tcp 40 ------- 0 13.1510 21.766 0 8206
- 0.252263 13 14 ack 40 ------- 0 13.839 15.398 13 8351
- 0.252391 13 14 ack 40 ------- 0 13.820 14.313 6 8352
- 0.252519 13 14 ack 40 ------- 0 13.553 1.1457 0 8356
r 0.252571 13 14 tcp 1540 ------- 0 13.1137 14.918 2 8007
r 0.252699 13 14 ack 40 ------- 0 13.611 4.1055 5 8169
r 0.252827 13 14 ack 40 ------- 0 13.820 14.313 5 8171
r 0.252955 13 14 tcp 40 ------- 0 13.1510 21.766 0 8206
r 0.253083 13 14 ack 40 ------- 0 13.839 15.398 13 8351
r 0.253211 13 14 ack 40 ------- 0 13.820 14.313 6 8352
r 0.253339 13 14 ack 40 ------- 0 13.553 1.1457 0 8356
+ 0.256679 13 14 ack 40 ------- 0 13.820 14.313 7 8523
- 0.256679 13 14 ack 40 ------- 0 13.820 14.313 7 8523
+ 0.25679 13 14 ack 40 ------- 0 13.611 4.1055 6 8525
- 0.256807 13 14 ack 40 ------- 0 13.611 4.1055 6 8525
r 0.257499 13 14 ack 40 ------- 0 13.820 14.313 7 8523
r 0.257627 13 14 ack 40 ------- 0 13.611 4.1055 6 8525
+ 0.259905 13 14 tcp 40 ------- 0 13.105 3.444 0 8637
- 0.259905 13 14 tcp 40 ------- 0 13.105 3.444 0 8637
r 0.260725 13 14 tcp 40 ------- 0 13.105 3.444 0 8637
+ 0.261607 13 14 ack 40 ------- 0 13.820 14.313 8 8698
- 0.261607 13 14 ack 40 ------- 0 13.820 14.313 8 8698
+ 0.261718 13 14 ack 40 ------- 0 13.611 4.1055 7 8701
- 0.261735 13 14 ack 40 ------- 0 13.611 4.1055 7 8701
r 0.262427 13 14 ack 40 ------- 0 13.820 14.313 8 8698
r 0.262555 13 14 ack 40 ------- 0 13.611 4.1055 7 8701
+ 0.266535 13 14 ack 40 ------- 0 13.820 14.313 9 8881
- 0.266535 13 14 ack 40 ------- 0 13.820 14.313 9 8881
+ 0.266646 13 14 ack 40 ------- 0 13.611 4.1055 8 8884
- 0.266663 13 14 ack 40 ------- 0 13.611 4.1055 8 8884
r 0.267355 13 14 ack 40 ------- 0 13.820 14.313 9 8881
r 0.267483 13 14 ack 40 ------- 0 13.611 4.1055 8 8884
+ 0.271463 13 14 ack 40 ------- 0 13.820 14.313 10 9106
- 0.271463 13 14 ack 40 ------- 0 13.820 14.313 10 9106
+ 0.271574 13 14 ack 40 ------- 0 13.611 4.1055 9 9107
+ 0.271591 13 14 tcp 1540 ------- 0 13.1137 14.918 3 9108
+ 0.271591 13 14 tcp 1540 ------- 0 13.1137 14.918 4 9109
- 0.271591 13 14 ack 40 ------- 0 13.611 4.1055 9 9107
+ 0.271702 13 14 tcp 1540 ------- 0 13.1325 17.970 3 9115
+ 0.271702 13 14 tcp 1540 ------- 0 13.1325 17.970 4 9116
+ 0.271719 13 14 tcp 1540 ------- 0 13.1137 14.918 5 9117
+ 0.271719 13 14 tcp 1540 ------- 0 13.1137 14.918 6 9118
- 0.271719 13 14 tcp 1540 ------- 0 13.1137 14.918 3 9108
+ 0.271958 13 14 ack 40 ------- 0 13.509 1.1413 0 9129
r 0.272283 13 14 ack 40 ------- 0 13.820 14.313 10 9106
r 0.272411 13 14 ack 40 ------- 0 13.611 4.1055 9 9107
+ 0.273182 13 14 tcp 40 ------- 0 13.1243 17.888 0 9166
+ 0.27399 13 14 ack 40 ------- 0 13.1044 20.430 0 9223
+ 0.276647 13 14 ack 40 ------- 0 13.820 14.313 11 9339
- 0.276647 13 14 tcp 1540 ------- 0 13.1137 14.918 4 9109
r 0.277339 13 14 tcp 1540 ------- 0 13.1137 14.918 3 9108
+ 0.280428 13 14 tcp 1540 ---A--- 0 13.1308 17.953 1 9498
+ 0.281575 13 14 ack 40 ------- 0 13.820 14.313 12 9546
d 0.281575 13 14 ack 40 ------- 0 13.820 14.313 12 9546
- 0.281575 13 14 tcp 1540 ------- 0 13.1325 17.970 3 9115
r 0.282267 13 14 tcp 1540 ------- 0 13.1137 14.918 4 9109
+ 0.285181 13 14 tcp 40 ------- 0 13.1333 17.978 0 9694
+ 0.286503 13 14 ack 40 ------- 0 13.820 14.313 13 9744
d 0.286503 13 14 ack 40 ------- 0 13.820 14.313 13 9744
- 0.286503 13 14 tcp 1540 ------- 0 13.1325 17.970 4 9116
r 0.287195 13 14 tcp 1540 ------- 0 13.1325 17.970 3 9115
+ 0.287683 13 14 ack 40 ------- 0 13.604 4.1048 0 9783
+ 0.289062 13 14 ack 40 ------- 0 13.1012 20.398 0 9822
d 0.289062 13 14 ack 40 ------- 0 13.1012 20.398 0 9822
+ 0.291431 13 14 ack 40 ------- 0 13.820 14.313 14 9907
d 0.291431 13 14 ack 40 ------- 0 13.820 14.313 14 9907
- 0.291431 13 14 tcp 1540 ------- 0 13.1137 14.918 5 9117
r 0.292123 13 14 tcp 1540 ------- 0 13.1325 17.970 4 9116
+ 0.29618 13 14 tcp 40 ------- 0 13.77 3.416 0 10115
+ 0.296359 13 14 ack 40 ------- 0 13.820 14.313 15 10121
d 0.296359 13 14 ack 40 ------- 0 13.820 14.313 15 10121
- 0.296359 13 14 tcp 1540 ------- 0 13.1137 14.918 6 9118
+ 0.296891 13 14 tcp 40 ------- 0 13.179 6.590 0 10151
r 0.297051 13 14 tcp 1540 ------- 0 13.1137 14.918 5 9117
+ 0.301287 13 14 ack 40 ------- 0 13.820 14.313 16 10331
d 0.301287 13 14 ack 40 ------- 0 13.820 14.313 16 10331
- 0.301287 13 14 ack 40 ------- 0 13.509 1.1413 0 9129
- 0.301415 13 14 tcp 40 ------- 0 13.1243 17.888 0 9166
- 0.301543 13 14 ack 40 ------- 0 13.1044 20.430 0 9223
- 0.301671 13 14 ack 40 ------- 0 13.820 14.313 11 9339
- 0.301799 13 14 tcp 1540 ---A--- 0 13.1308 17.953 1 9498
r 0.301979 13 14 tcp 1540 ------- 0 13.1137 14.918 6 9118
r 0.302107 13 14 ack 40 ------- 0 13.509 1.1413 0 9129
r 0.302235 13 14 tcp 40 ------- 0 13.1243 17.888 0 9166
r 0.302363 13 14 ack 40 ------- 0 13.1044 20.430 0 9223
r 0.302491 13 14 ack 40 ------- 0 13.820 14.313 11 9339
+ 0.306215 13 14 ack 40 ------- 0 13.820 14.313 17 10551
- 0.306727 13 14 tcp 40 ------- 0 13.1333 17.978 0 9694
- 0.306855 13 14 ack 40 ------- 0 13.604 4.1048 0 9783
- 0.306983 13 14 tcp 40 ------- 0 13.77 3.416 0 10115
- 0.307111 13 14 tcp 40 ------- 0 13.179 6.590 0 10151
- 0.307239 13 14 ack 40 ------- 0 13.820 14.313 17 10551
r 0.307419 13 14 tcp 1540 ---A--- 0 13.1308 17.953 1 9498
r 0.307547 13 14 tcp 40 ------- 0 13.1333 17.978 0 9694
r 0.307675 13 14 ack 40 ------- 0 13.604 4.1048 0 9783
r 0.307803 13 14 tcp 40 ------- 0 13.77 3.416 0 10115
r 0.307931 13 14 tcp 40 ------- 0 13.179 6.590 0 10151
r 0.308059 13 14 ack 40 ------- 0 13.820 14.313 17 10551
+ 0.309914 13 14 tcp 40 ------- 0 13.1314 17.959 0 10694
- 0.309914 13 14 tcp 40 ------- 0 13.1314 17.959 0 10694
+ 0.310524 13 14 tcp 1540 ---A--- 0 13.1370 17.1015 1 10710
- 0.310524 13 14 tcp 1540 ---A--- 0 13.1370 17.1015 1 10710
r 0.310734 13 14 tcp 40 ------- 0 13.1314 17.959 0 10694
+ 0.311143 13 14 ack 40 ------- 0 13.820 14.313 18 10727
- 0.315452 13 14 ack 40 ------- 0 13.820 14.313 18 10727
+ 0.316071 13 14 ack 40 ------- 0 13.820 14.313 19 10945
- 0.316071 13 14 ack 40 ------- 0 13.820 14.313 19 10945
r 0.316144 13 14 tcp 1540 ---A--- 0 13.1370 17.1015 1 10710
+ 0.316175 13 14 tcp 1540 ------- 0 13.175 6.586 1 10947
+ 0.316175 13 14 tcp 1540 ------- 0 13.175 6.586 2 10948
- 0.316199 13 14 tcp 1540 ------- 0 13.175 6.586 1 10947
r 0.316272 13 14 ack 40 ------- 0 13.820 14.313 18 10727
r 0.316891 13 14 ack 40 ------- 0 13.820 14.313 19 10945
+ 0.320999 13 14 ack 40 ------- 0 13.820 14.313 20 11160
+ 0.321103 13 14 ack 40 ------- 0 13.603 4.1047 7 11163
- 0.321127 13 14 tcp 1540 ------- 0 13.175 6.586 2 10948
r 0.321819 13 14 tcp 1540 ------- 0 13.175 6.586 1 10947
+ 0.326055 13 14 ack 40 ------- 0 13.820 14.313 21 11350
- 0.326055 13 14 ack 40 ------- 0 13.820 14.313 20 11160
- 0.326183 13 14 ack 40 ------- 0 13.603 4.1047 7 11163
+ 0.326287 13 14 ack 40 ------- 0 13.603 4.1047 8 11359
- 0.326311 13 14 ack 40 ------- 0 13.820 14.313 21 11350
+ 0.326415 13 14 ack 40 ------- 0 13.460 1.1364 0 11363
- 0.326439 13 14 ack 40 ------- 0 13.603 4.1047 8 11359
- 0.326567 13 14 ack 40 ------- 0 13.460 1.1364 0 11363
r 0.326747 13 14 tcp 1540 ------- 0 13.175 6.586 2 10948
r 0.326875 13 14 ack 40 ------- 0 13.820 14.313 20 11160
r 0.327003 13 14 ack 40 ------- 0 13.603 4.1047 7 11163
r 0.327131 13 14 ack 40 ------- 0 13.820 14.313 21 11350
r 0.327259 13 14 ack 40 ------- 0 13.603 4.1047 8 11359
r 0.327387 13 14 ack 40 ------- 0 13.460 1.1364 0 11363
+ 0.327682 13 14 tcp 40 ------- 0 13.1506 21.762 0 11406
- 0.327682 13 14 tcp 40 ------- 0 13.1506 21.762 0 11406
r 0.328502 13 14 tcp 40 ------- 0 13.1506 21.762 0 11406
+ 0.329575 13 14 tcp 40 ------- 0 13.1262 17.907 0 11489
- 0.329575 13 14 tcp 40 ------- 0 13.1262 17.907 0 11489
r 0.330395 13 14 tcp 40 ------- 0 13.1262 17.907 0 11489
+ 0.330983 13 14 ack 40 ------- 0 13.820 14.313 22 11554
- 0.330983 13 14 ack 40 ------- 0 13.820 14.313 22 11554
+ 0.331239 13 14 tcp 1540 ------- 0 13.1137 14.918 7 11566
- 0.331239 13 14 tcp 1540 ------- 0 13.1137 14.918 7 11566
+ 0.331239 13 14 tcp 1540 ------- 0 13.1137 14.918 8 11567
+ 0.331343 13 14 ack 40 ------- 0 13.603 4.1047 9 11573
+ 0.331495 13 14 tcp 1540 ------- 0 13.1137 14.918 9 11580
+ 0.331495 13 14 tcp 1540 ------- 0 13.1137 14.918 10 11581
+ 0.331623 13 14 tcp 1540 ------- 0 13.1137 14.918 11 11586
+ 0.331623 13 14 tcp 1540 ------- 0 13.1137 14.918 12 11587
r 0.331803 13 14 ack 40 ------- 0 13.820 14.313 22 11554
+ 0.333367 13 14 tcp 40 ------- 0 13.1332 17.977 0 11643
- 0.336167 13 14 tcp 1540 ------- 0 13.1137 14.918 8 11567
+ 0.336399 13 14 ack 40 ------- 0 13.603 4.1047 10 11779
+ 0.336527 13 14 tcp 1540 ------- 0 13.163 6.574 1 11781
+ 0.336527 13 14 tcp 1540 ------- 0 13.163 6.574 2 11782
+ 0.336655 13 14 tcp 1540 ------- 0 13.168 6.579 1 11785
d 0.336655 13 14 tcp 1540 ------- 0 13.168 6.579 1 11785
+ 0.336655 13 14 tcp 1540 ------- 0 13.168 6.579 2 11786
d 0.336655 13 14 tcp 1540 ------- 0 13.168 6.579 2 11786
r 0.336859 13 14 tcp 1540 ------- 0 13.1137 14.918 7 11566
- 0.341095 13 14 ack 40 ------- 0 13.603 4.1047 9 11573
- 0.341223 13 14 tcp 1540 ------- 0 13.1137 14.918 9 11580
+ 0.341583 13 14 ack 40 ------- 0 13.603 4.1047 11 11994
+ 0.341607 13 14 tcp 1540 ------- 0 13.1137 14.918 13 12000
+ 0.341607 13 14 tcp 1540 ------- 0 13.1137 14.918 14 12001
d 0.341607 13 14 tcp 1540 ------- 0 13.1137 14.918 14 12001
r 0.341787 13 14 tcp 1540 ------- 0 13.1137 14.918 8 11567
r 0.341915 13 14 ack 40 ------- 0 13.603 4.1047 9 11573
- 0.346151 13 14 tcp 1540 ------- 0 13.1137 14.918 10 11581
+ 0.346511 13 14 ack 40 ------- 0 13.603 4.1047 12 12190
+ 0.346535 13 14 ack 40 ------- 0 13.820 14.313 23 12191
d 0.346535 13 14 ack 40 ------- 0 13.820 14.313 23 12191
r 0.346843 13 14 tcp 1540 ------- 0 13.1137 14.918 9 11580
- 0.351079 13 14 tcp 1540 ------- 0 13.1137 14.918 11 11586
+ 0.351463 13 14 ack 40 ------- 0 13.820 14.313 24 12381
r 0.351771 13 14 tcp 1540 ------- 0 13.1137 14.918 10 11581
- 0.356007 13 14 tcp 1540 ------- 0 13.1137 14.918 12 11587
+ 0.356623 13 14 ack 40 ------- 0 13.603 4.1047 12 12568
r 0.356699 13 14 tcp 1540 ------- 0 13.1137 14.918 11 11586
+ 0.357391 13 14 ack 40 ------- 0 13.481 1.1385 0 12614
d 0.357391 13 14 ack 40 ------- 0 13.481 1.1385 0 12614
+ 0.357519 13 14 ack 40 ------- 0 13.1114 24.297 0 12626
d 0.357519 13 14 ack 40 ------- 0 13.1114 24.297 0 12626
- 0.360935 13 14 tcp 40 ------- 0 13.1332 17.977 0 11643
- 0.361063 13 14 ack 40 ------- 0 13.603 4.1047 10 11779
- 0.361191 13 14 tcp 1540 ------- 0 13.163 6.574 1 11781
r 0.361627 13 14 tcp 1540 ------- 0 13.1137 14.918 12 11587
r 0.361755 13 14 tcp 40 ------- 0 13.1332 17.977 0 11643
r 0.361883 13 14 ack 40 ------- 0 13.603 4.1047 10 11779
+ 0.363846 13 14 ack 40 ------- 0 13.376 0.1006 0 12856
- 0.366119 13 14 tcp 1540 ------- 0 13.163 6.574 2 11782
+ 0.36647 13 14 tcp 1540 ------- 0 13.105 3.444 1 12950
+ 0.36647 13 14 tcp 1540 ------- 0 13.105 3.444 2 12951
+ 0.366598 13 14 ack 40 ------- 0 13.521 1.1425 0 12955
r 0.366811 13 14 tcp 1540 ------- 0 13.163 6.574 1 11781
+ 0.368446 13 14 tcp 40 ------- 0 13.116 4.498 0 13016
d 0.368446 13 14 tcp 40 ------- 0 13.116 4.498 0 13016
- 0.371047 13 14 ack 40 ------- 0 13.603 4.1047 11 11994
- 0.371175 13 14 tcp 1540 ------- 0 13.1137 14.918 13 12000
r 0.371739 13 14 tcp 1540 ------- 0 13.163 6.574 2 11782
r 0.371867 13 14 ack 40 ------- 0 13.603 4.1047 11 11994
+ 0.372534 13 14 ack 40 ------- 0 13.388 0.1018 1 13174
+ 0.372662 13 14 ack 40 ------- 0 13.435 0.1065 0 13184
+ 0.37279 13 14 ack 40 ------- 0 13.490 1.1394 0 13193
d 0.37279 13 14 ack 40 ------- 0 13.490 1.1394 0 13193
+ 0.375821 13 14 tcp 40 ------- 0 13.1192 17.837 0 13316
d 0.375821 13 14 tcp 40 ------- 0 13.1192 17.837 0 13316
- 0.376103 13 14 ack 40 ------- 0 13.603 4.1047 12 12190
+ 0.376231 13 14 ack 40 ------- 0 13.820 14.313 25 13329
- 0.376231 13 14 ack 40 ------- 0 13.820 14.313 24 12381
- 0.376359 13 14 ack 40 ------- 0 13.603 4.1047 12 12568
- 0.376487 13 14 ack 40 ------- 0 13.376 0.1006 0 12856
- 0.376615 13 14 tcp 1540 ------- 0 13.105 3.444 1 12950
r 0.376795 13 14 tcp 1540 ------- 0 13.1137 14.918 13 12000
r 0.376923 13 14 ack 40 ------- 0 13.603 4.1047 12 12190
r 0.377051 13 14 ack 40 ------- 0 13.820 14.313 24 12381
r 0.377179 13 14 ack 40 ------- 0 13.603 4.1047 12 12568
r 0.377307 13 14 ack 40 ------- 0 13.376 0.1006 0 12856
+ 0.381159 13 14 ack 40 ------- 0 13.820 14.313 26 13526
- 0.381543 13 14 tcp 1540 ------- 0 13.105 3.444 2 12951
r 0.382235 13 14 tcp 1540 ------- 0 13.105 3.444 1 12950
+ 0.383342 13 14 tcp 1540 ------- 0 13.1227 17.872 1 13621
+ 0.383342 13 14 tcp 1540 ------- 0 13.1227 17.872 2 13622
+ 0.386087 13 14 ack 40 ------- 0 13.820 14.313 27 13734
- 0.386471 13 14 ack 40 ------- 0 13.521 1.1425 0 12955
- 0.386599 13 14 ack 40 ------- 0 13.388 0.1018 1 13174
- 0.386727 13 14 ack 40 ------- 0 13.435 0.1065 0 13184
- 0.386855 13 14 ack 40 ------- 0 13.820 14.313 25 13329
- 0.386983 13 14 ack 40 ------- 0 13.820 14.313 26 13526
- 0.387111 13 14 tcp 1540 ------- 0 13.1227 17.872 1 13621
r 0.387163 13 14 tcp 1540 ------- 0 13.105 3.444 2 12951
r 0.387291 13 14 ack 40 ------- 0 13.521 1.1425 0 12955
r 0.387419 13 14 ack 40 ------- 0 13.388 0.1018 1 13174
r 0.387547 13 14 ack 40 ------- 0 13.435 0.1065 0 13184
r 0.387675 13 14 ack 40 ------- 0 13.820 14.313 25 13329
r 0.387803 13 14 ack 40 ------- 0 13.820 14.313 26 13526
+ 0.388398 13 14 ack 40 ------- 0 13.876 15.435 0 13853
+ 0.391015 13 14 ack 40 ------- 0 13.820 14.313 28 13981
- 0.392039 13 14 tcp 1540 ------- 0 13.1227 17.872 2 13622
r 0.392731 13 14 tcp 1540 ------- 0 13.1227 17.872 1 13621
+ 0.395943 13 14 ack 40 ------- 0 13.820 14.313 29 14165
- 0.396967 13 14 ack 40 ------- 0 13.820 14.313 27 13734
- 0.397095 13 14 ack 40 ------- 0 13.876 15.435 0 13853
- 0.397223 13 14 ack 40 ------- 0 13.820 14.313 28 13981
- 0.397351 13 14 ack 40 ------- 0 13.820 14.313 29 14165