+ 0.004165 5 22 rtProtoDV 26 ------- 0 5.1623 22.1166 -1 61
- 0.004165 5 22 rtProtoDV 26 ------- 0 5.1623 22.1166 -1 61
+ 0.007491 5 22 rtProtoDV 26 ------- 0 5.1623 22.1166 -1 184
- 0.007491 5 22 rtProtoDV 26 ------- 0 5.1623 22.1166 -1 184
+ 0.008323 5 22 rtProtoDV 26 ------- 0 5.1623 22.1166 -1 222
- 0.008878 5 22 rtProtoDV 26 ------- 0 5.1623 22.1166 -1 222
+ 0.009936 5 22 rtProtoDV 26 ------- 0 5.1623 22.1166 -1 289
- 0.010264 5 22 rtProtoDV 26 ------- 0 5.1623 22.1166 -1 289
+ 0.010416 5 22 rtProtoDV 26 ------- 0 5.1623 22.1166 -1 313
- 0.011651 5 22 rtProtoDV 26 ------- 0 5.1623 22.1166 -1 313
+ 0.013638 5 22 rtProtoDV 26 ------- 0 5.1623 22.1166 -1 502
- 0.013638 5 22 rtProtoDV 26 ------- 0 5.1623 22.1166 -1 502
+ 0.013838 5 22 rtProtoDV 26 ------- 0 5.1623 22.1166 -1 515
+ 0.014907 5 22 rtProtoDV 26 ------- 0 5.1623 22.1166 -1 561
- 0.015024 5 22 rtProtoDV 26 ------- 0 5.1623 22.1166 -1 515
+ 0.016103 5 22 rtProtoDV 26 ------- 0 5.1623 22.1166 -1 597
- 0.016411 5 22 rtProtoDV 26 ------- 0 5.1623 22.1166 -1 561
- 0.017798 5 22 rtProtoDV 26 ------- 0 5.1623 22.1166 -1 597
+ 0.021041 5 22 rtProtoDV 26 ------- 0 5.1623 22.1166 -1 777
- 0.021041 5 22 rtProtoDV 26 ------- 0 5.1623 22.1166 -1 777
r 0.021462 5 22 rtProtoDV 26 ------- 0 5.1623 22.1166 -1 61
r 0.024788 5 22 rtProtoDV 26 ------- 0 5.1623 22.1166 -1 184
r 0.026175 5 22 rtProtoDV 26 ------- 0 5.1623 22.1166 -1 222
r 0.027562 5 22 rtProtoDV 26 ------- 0 5.1623 22.1166 -1 289
r 0.028948 5 22 rtProtoDV 26 ------- 0 5.1623 22.1166 -1 313
r 0.030935 5 22 rtProtoDV 26 ------- 0 5.1623 22.1166 -1 502
+ 0.03173 5 22 tcp 40 ------- 0 3.1399 22.694 0 805
- 0.03173 5 22 tcp 40 ------- 0 3.1399 22.694 0 805
r 0.032321 5 22 rtProtoDV 26 ------- 0 5.1623 22.1166 -1 515
r 0.033708 5 22 rtProtoDV 26 ------- 0 5.1623 22.1166 -1 561
+ 0.03412 5 22 tcp 40 ------- 0 4.1335 22.760 0 1054
- 0.03412 5 22 tcp 40 ------- 0 4.1335 22.760 0 1054
r 0.035095 5 22 rtProtoDV 26 ------- 0 5.1623 22.1166 -1 597
r 0.038338 5 22 rtProtoDV 26 ------- 0 5.1623 22.1166 -1 777
+ 0.038483 5 22 ack 40 ------- 0 5.976 22.202 0 1188
- 0.038483 5 22 ack 40 ------- 0 5.976 22.202 0 1188
+ 0.039869 5 22 rtProtoDV 26 ------- 0 5.1623 22.1166 -1 1226
- 0.040616 5 22 rtProtoDV 26 ------- 0 5.1623 22.1166 -1 1226
r 0.049774 5 22 tcp 40 ------- 0 3.1399 22.694 0 805
r 0.052164 5 22 tcp 40 ------- 0 4.1335 22.760 0 1054
r 0.056526 5 22 ack 40 ------- 0 5.976 22.202 0 1188
+ 0.057028 5 22 tcp 40 ------- 0 20.1386 22.994 0 1436
- 0.057028 5 22 tcp 40 ------- 0 20.1386 22.994 0 1436
r 0.057913 5 22 rtProtoDV 26 ------- 0 5.1623 22.1166 -1 1226
+ 0.058306 5 22 ack 40 ------- 0 5.968 22.194 0 1706
- 0.059161 5 22 ack 40 ------- 0 5.968 22.194 0 1706
+ 0.064363 5 22 ack 40 ------- 0 5.964 22.190 0 1875
- 0.064363 5 22 ack 40 ------- 0 5.964 22.190 0 1875
+ 0.066151 5 22 ack 40 ------- 0 20.1331 22.570 0 1680
- 0.066497 5 22 ack 40 ------- 0 20.1331 22.570 0 1680
+ 0.073914 5 22 ack 40 ------- 0 6.898 22.281 0 1856
- 0.073914 5 22 ack 40 ------- 0 6.898 22.281 0 1856
+ 0.074947 5 22 tcp 40 ------- 0 4.1336 22.761 0 2160
r 0.075071 5 22 tcp 40 ------- 0 20.1386 22.994 0 1436
- 0.076048 5 22 tcp 40 ------- 0 4.1336 22.761 0 2160
r 0.077205 5 22 ack 40 ------- 0 5.968 22.194 0 1706
+ 0.077443 5 22 tcp 1540 ------- 0 4.1335 22.760 1 2196
- 0.078181 5 22 tcp 1540 ------- 0 4.1335 22.760 1 2196
+ 0.078675 5 22 tcp 1540 ------- 0 4.1335 22.760 2 2197
r 0.082407 5 22 ack 40 ------- 0 5.964 22.190 0 1875
r 0.084541 5 22 ack 40 ------- 0 20.1331 22.570 0 1680
+ 0.089981 5 22 tcp 40 ------- 0 6.1425 22.846 0 2009
r 0.091958 5 22 ack 40 ------- 0 6.898 22.281 0 1856
r 0.094091 5 22 tcp 40 ------- 0 4.1336 22.761 0 2160
+ 0.137011 5 22 tcp 40 ------- 0 24.453 22.1062 0 2172
+ 0.144531 5 22 tcp 40 ------- 0 24.475 22.1084 0 2309
+ 0.156616 5 22 ack 40 ------- 0 5.976 22.202 1 4894
- 0.160314 5 22 tcp 1540 ------- 0 4.1335 22.760 2 2197
+ 0.165987 5 22 ack 40 ------- 0 12.894 22.367 0 4033
+ 0.166019 5 22 tcp 40 ------- 0 15.1399 22.937 0 4181
+ 0.171203 5 22 tcp 40 ------- 0 24.442 22.1051 0 3354
+ 0.175091 5 22 tcp 40 ------- 0 20.628 18.955 0 5276
r 0.176225 5 22 tcp 1540 ------- 0 4.1335 22.760 1 2196
+ 0.179549 5 22 tcp 40 ------- 0 6.1400 22.821 0 4026
+ 0.190515 5 22 tcp 40 ------- 0 12.1264 22.898 0 5382
d 0.190515 5 22 tcp 40 ------- 0 12.1264 22.898 0 5382
+ 0.223232 5 22 tcp 40 ------- 0 21.1063 22.1031 0 4344
d 0.223232 5 22 tcp 40 ------- 0 21.1063 22.1031 0 4344
+ 0.23875 5 22 ack 40 ------- 0 5.976 22.202 2 7901
d 0.23875 5 22 ack 40 ------- 0 5.976 22.202 2 7901
- 0.242448 5 22 tcp 40 ------- 0 6.1425 22.846 0 2009
- 0.244581 5 22 tcp 40 ------- 0 24.453 22.1062 0 2172
- 0.246714 5 22 tcp 40 ------- 0 24.475 22.1084 0 2309
- 0.248848 5 22 ack 40 ------- 0 5.976 22.202 1 4894
+ 0.2492 5 22 tcp 40 ------- 0 3.1433 22.728 0 7719
- 0.250981 5 22 ack 40 ------- 0 12.894 22.367 0 4033
- 0.253114 5 22 tcp 40 ------- 0 15.1399 22.937 0 4181
- 0.255248 5 22 tcp 40 ------- 0 24.442 22.1051 0 3354
- 0.257381 5 22 tcp 40 ------- 0 20.628 18.955 0 5276
r 0.258358 5 22 tcp 1540 ------- 0 4.1335 22.760 2 2197
- 0.259514 5 22 tcp 40 ------- 0 6.1400 22.821 0 4026
r 0.260491 5 22 tcp 40 ------- 0 6.1425 22.846 0 2009
- 0.261648 5 22 tcp 40 ------- 0 3.1433 22.728 0 7719
r 0.262625 5 22 tcp 40 ------- 0 24.453 22.1062 0 2172
r 0.264758 5 22 tcp 40 ------- 0 24.475 22.1084 0 2309
r 0.266891 5 22 ack 40 ------- 0 5.976 22.202 1 4894
+ 0.267523 5 22 tcp 40 ------- 0 4.1331 22.756 0 8725
- 0.267523 5 22 tcp 40 ------- 0 4.1331 22.756 0 8725
r 0.269025 5 22 ack 40 ------- 0 12.894 22.367 0 4033
+ 0.269071 5 22 tcp 40 ------- 0 5.1491 18.387 0 8994
- 0.269656 5 22 tcp 40 ------- 0 5.1491 18.387 0 8994
+ 0.270538 5 22 tcp 40 ------- 0 21.1036 22.1004 0 4956
+ 0.270625 5 22 tcp 40 ------- 0 6.1370 22.791 0 7205
+ 0.270721 5 22 tcp 40 ------- 0 6.1402 22.823 0 7342
r 0.271158 5 22 tcp 40 ------- 0 15.1399 22.937 0 4181
- 0.271789 5 22 tcp 40 ------- 0 21.1036 22.1004 0 4956
r 0.273291 5 22 tcp 40 ------- 0 24.442 22.1051 0 3354
- 0.273923 5 22 tcp 40 ------- 0 6.1370 22.791 0 7205
r 0.275425 5 22 tcp 40 ------- 0 20.628 18.955 0 5276
- 0.276056 5 22 tcp 40 ------- 0 6.1402 22.823 0 7342
r 0.277558 5 22 tcp 40 ------- 0 6.1400 22.821 0 4026
r 0.279691 5 22 tcp 40 ------- 0 3.1433 22.728 0 7719
+ 0.279907 5 22 tcp 1540 ---A--- 0 4.1335 22.760 1 9237
- 0.279907 5 22 tcp 1540 ---A--- 0 4.1335 22.760 1 9237
+ 0.282659 5 22 tcp 40 ------- 0 24.466 22.1075 0 6744
+ 0.284412 5 22 tcp 1540 ---A--- 0 3.1399 22.694 1 9272
r 0.285566 5 22 tcp 40 ------- 0 4.1331 22.756 0 8725
+ 0.285859 5 22 tcp 40 ------- 0 3.1436 22.731 0 9422
+ 0.286113 5 22 tcp 40 ------- 0 6.1406 22.827 0 8606
r 0.2877 5 22 tcp 40 ------- 0 5.1491 18.387 0 8994
+ 0.288705 5 22 ack 40 ------- 0 6.890 22.273 0 8995
+ 0.288737 5 22 tcp 40 ------- 0 6.1390 22.811 0 9044
r 0.289833 5 22 tcp 40 ------- 0 21.1036 22.1004 0 4956
r 0.291966 5 22 tcp 40 ------- 0 6.1370 22.791 0 7205
r 0.2941 5 22 tcp 40 ------- 0 6.1402 22.823 0 7342
+ 0.306908 5 22 tcp 40 ------- 0 3.1398 22.693 0 10253
+ 0.307811 5 22 ack 40 ------- 0 12.902 22.375 0 9350
+ 0.319155 5 22 tcp 40 ------- 0 24.458 22.1067 0 8127
+ 0.329416 5 22 ack 40 ------- 0 5.968 22.194 1 11480
d 0.329416 5 22 ack 40 ------- 0 5.968 22.194 1 11480
- 0.36204 5 22 tcp 40 ------- 0 24.466 22.1075 0 6744
- 0.364173 5 22 tcp 1540 ---A--- 0 3.1399 22.694 1 9272
r 0.37795 5 22 tcp 1540 ---A--- 0 4.1335 22.760 1 9237
r 0.380084 5 22 tcp 40 ------- 0 24.466 22.1075 0 6744
+ 0.390496 5 22 tcp 40 ------- 0 21.1046 22.1014 0 7902
+ 0.390979 5 22 tcp 40 ------- 0 24.441 22.1050 0 10299
+ 0.393975 5 22 tcp 40 ------- 0 20.624 18.951 0 13691
d 0.393975 5 22 tcp 40 ------- 0 20.624 18.951 0 13691
+ 0.397459 5 22 tcp 40 ------- 0 14.1577 22.931 0 12359
d 0.397459 5 22 tcp 40 ------- 0 14.1577 22.931 0 12359
+ 0.399578 5 22 rtProtoDV 26 ------- 0 5.1623 22.1166 -1 14320
d 0.399578 5 22 rtProtoDV 26 ------- 0 5.1623 22.1166 -1 14320
+ 0.399873 5 22 tcp 40 ------- 0 3.1414 22.709 0 14042
d 0.399873 5 22 tcp 40 ------- 0 3.1414 22.709 0 14042
+ 0.41155 5 22 ack 40 ------- 0 5.968 22.194 2 14808
d 0.41155 5 22 ack 40 ------- 0 5.968 22.194 2 14808
+ 0.418979 5 22 tcp 40 ------- 0 24.469 22.1078 0 12370
d 0.418979 5 22 tcp 40 ------- 0 24.469 22.1078 0 12370
- 0.446307 5 22 tcp 40 ------- 0 3.1436 22.731 0 9422
- 0.44844 5 22 tcp 40 ------- 0 6.1406 22.827 0 8606
+ 0.450195 5 22 tcp 40 ------- 0 4.1332 22.757 0 16066
+ 0.450227 5 22 tcp 40 ------- 0 24.440 22.1049 0 13003
- 0.450573 5 22 ack 40 ------- 0 6.890 22.273 0 8995
- 0.452707 5 22 tcp 40 ------- 0 6.1390 22.811 0 9044
- 0.45484 5 22 tcp 40 ------- 0 3.1398 22.693 0 10253
- 0.456973 5 22 ack 40 ------- 0 12.902 22.375 0 9350
- 0.459107 5 22 tcp 40 ------- 0 24.458 22.1067 0 8127
+ 0.460275 5 22 tcp 40 ------- 0 15.1397 22.935 0 15098
- 0.46124 5 22 tcp 40 ------- 0 21.1046 22.1014 0 7902
r 0.462217 5 22 tcp 1540 ---A--- 0 3.1399 22.694 1 9272
+ 0.463244 5 22 tcp 40 ------- 0 20.1380 22.988 0 16480
- 0.463373 5 22 tcp 40 ------- 0 24.441 22.1050 0 10299
r 0.46435 5 22 tcp 40 ------- 0 3.1436 22.731 0 9422
- 0.465507 5 22 tcp 40 ------- 0 4.1332 22.757 0 16066
r 0.466484 5 22 tcp 40 ------- 0 6.1406 22.827 0 8606
+ 0.467105 5 22 tcp 40 ------- 0 6.1371 22.792 0 15228
- 0.46764 5 22 tcp 40 ------- 0 24.440 22.1049 0 13003
r 0.468617 5 22 ack 40 ------- 0 6.890 22.273 0 8995
- 0.469773 5 22 tcp 40 ------- 0 15.1397 22.935 0 15098
r 0.47075 5 22 tcp 40 ------- 0 6.1390 22.811 0 9044
- 0.471907 5 22 tcp 40 ------- 0 20.1380 22.988 0 16480
+ 0.472072 5 22 tcp 40 ------- 0 3.1448 22.743 0 16722
r 0.472884 5 22 tcp 40 ------- 0 3.1398 22.693 0 10253
- 0.47404 5 22 tcp 40 ------- 0 6.1371 22.792 0 15228
r 0.475017 5 22 ack 40 ------- 0 12.902 22.375 0 9350
- 0.476173 5 22 tcp 40 ------- 0 3.1448 22.743 0 16722
r 0.47715 5 22 tcp 40 ------- 0 24.458 22.1067 0 8127
r 0.479284 5 22 tcp 40 ------- 0 21.1046 22.1014 0 7902
r 0.481417 5 22 tcp 40 ------- 0 24.441 22.1050 0 10299
+ 0.482401 5 22 tcp 40 ------- 0 6.1369 22.790 0 15995
- 0.482401 5 22 tcp 40 ------- 0 6.1369 22.790 0 15995
r 0.48355 5 22 tcp 40 ------- 0 4.1332 22.757 0 16066
r 0.485684 5 22 tcp 40 ------- 0 24.440 22.1049 0 13003
r 0.487817 5 22 tcp 40 ------- 0 15.1397 22.935 0 15098
r 0.48995 5 22 tcp 40 ------- 0 20.1380 22.988 0 16480
r 0.492084 5 22 tcp 40 ------- 0 6.1371 22.792 0 15228
+ 0.493683 5 22 ack 40 ------- 0 5.964 22.190 1 18110
- 0.493683 5 22 ack 40 ------- 0 5.964 22.190 1 18110
r 0.494217 5 22 tcp 40 ------- 0 3.1448 22.743 0 16722
r 0.500445 5 22 tcp 40 ------- 0 6.1369 22.790 0 15995
+ 0.502115 5 22 tcp 40 ------- 0 15.1406 22.944 0 16799
- 0.502115 5 22 tcp 40 ------- 0 15.1406 22.944 0 16799
+ 0.503317 5 22 tcp 40 ------- 0 3.1425 22.720 0 18101
- 0.504248 5 22 tcp 40 ------- 0 3.1425 22.720 0 18101
r 0.511727 5 22 ack 40 ------- 0 5.964 22.190 1 18110
+ 0.513461 5 22 tcp 40 ------- 0 3.1422 22.717 0 18450
- 0.513461 5 22 tcp 40 ------- 0 3.1422 22.717 0 18450
+ 0.519675 5 22 tcp 40 ------- 0 3.1401 22.696 0 18874
- 0.519675 5 22 tcp 40 ------- 0 3.1401 22.696 0 18874
r 0.520158 5 22 tcp 40 ------- 0 15.1406 22.944 0 16799
r 0.522292 5 22 tcp 40 ------- 0 3.1425 22.720 0 18101
r 0.531505 5 22 tcp 40 ------- 0 3.1422 22.717 0 18450
r 0.537719 5 22 tcp 40 ------- 0 3.1401 22.696 0 18874
+ 0.539025 5 22 tcp 40 ------- 0 6.1375 22.796 0 18577
- 0.539025 5 22 tcp 40 ------- 0 6.1375 22.796 0 18577
r 0.557069 5 22 tcp 40 ------- 0 6.1375 22.796 0 18577
+ 0.557477 5 22 tcp 40 ------- 0 3.1440 22.735 0 20178
- 0.557477 5 22 tcp 40 ------- 0 3.1440 22.735 0 20178
+ 0.55843 5 22 tcp 40 ------- 0 15.1401 22.939 0 19116
- 0.55961 5 22 tcp 40 ------- 0 15.1401 22.939 0 19116
+ 0.563031 5 22 tcp 40 ------- 0 3.1404 22.699 0 20508
- 0.563031 5 22 tcp 40 ------- 0 3.1404 22.699 0 20508
+ 0.566348 5 22 tcp 40 ------- 0 5.1575 22.773 0 21009
- 0.566348 5 22 tcp 40 ------- 0 5.1575 22.773 0 21009
r 0.575521 5 22 tcp 40 ------- 0 3.1440 22.735 0 20178
+ 0.575816 5 22 ack 40 ------- 0 5.964 22.190 2 21430
- 0.575816 5 22 ack 40 ------- 0 5.964 22.190 2 21430
r 0.577654 5 22 tcp 40 ------- 0 15.1401 22.939 0 19116
r 0.581075 5 22 tcp 40 ------- 0 3.1404 22.699 0 20508
r 0.584392 5 22 tcp 40 ------- 0 5.1575 22.773 0 21009
r 0.59386 5 22 ack 40 ------- 0 5.964 22.190 2 21430
+ 0.619448 5 22 tcp 40 ------- 0 5.1577 22.775 0 23198
- 0.619448 5 22 tcp 40 ------- 0 5.1577 22.775 0 23198
r 0.637492 5 22 tcp 40 ------- 0 5.1577 22.775 0 23198
+ 0.638781 5 22 tcp 40 ------- 0 21.1060 22.1028 0 18575
- 0.638781 5 22 tcp 40 ------- 0 21.1060 22.1028 0 18575
+ 0.642045 5 22 tcp 40 ------- 0 24.452 22.1061 0 20262
- 0.642045 5 22 tcp 40 ------- 0 24.452 22.1061 0 20262
+ 0.647165 5 22 tcp 40 ------- 0 4.1330 22.755 0 24248
- 0.647165 5 22 tcp 40 ------- 0 4.1330 22.755 0 24248
r 0.656825 5 22 tcp 40 ------- 0 21.1060 22.1028 0 18575
r 0.660089 5 22 tcp 40 ------- 0 24.452 22.1061 0 20262
r 0.665209 5 22 tcp 40 ------- 0 4.1330 22.755 0 24248
+ 0.671457 5 22 tcp 40 ------- 0 6.1394 22.815 0 23811
- 0.671457 5 22 tcp 40 ------- 0 6.1394 22.815 0 23811
+ 0.686771 5 22 tcp 1540 ---A--- 0 4.1335 22.760 1 25456
- 0.686771 5 22 tcp 1540 ---A--- 0 4.1335 22.760 1 25456
+ 0.688226 5 22 tcp 40 ------- 0 3.1416 22.711 0 25390
+ 0.68949 5 22 tcp 1540 ---A--- 0 3.1399 22.694 1 25472
r 0.689501 5 22 tcp 40 ------- 0 6.1394 22.815 0 23811
+ 0.706529 5 22 tcp 40 ------- 0 6.1382 22.803 0 24872
+ 0.723725 5 22 tcp 40 ------- 0 14.1579 22.933 0 25288
+ 0.725585 5 22 tcp 40 ------- 0 6.1403 22.824 0 25739
+ 0.734817 5 22 tcp 40 ------- 0 6.1422 22.843 0 26617
+ 0.747282 5 22 tcp 40 ------- 0 3.1408 22.703 0 28222
+ 0.756333 5 22 tcp 40 ------- 0 4.1329 22.754 0 28794
+ 0.761453 5 22 tcp 40 ------- 0 24.463 22.1072 0 25709
- 0.768904 5 22 tcp 40 ------- 0 3.1416 22.711 0 25390
- 0.771037 5 22 tcp 1540 ---A--- 0 3.1399 22.694 1 25472
+ 0.775607 5 22 ack 40 ------- 0 20.1331 22.570 0 29328
+ 0.776273 5 22 tcp 40 ------- 0 6.1412 22.833 0 28150
+ 0.780791 5 22 ack 40 ------- 0 20.1325 22.564 0 29543
d 0.780791 5 22 ack 40 ------- 0 20.1325 22.564 0 29543
r 0.784814 5 22 tcp 1540 ---A--- 0 4.1335 22.760 1 25456
r 0.786948 5 22 tcp 40 ------- 0 3.1416 22.711 0 25390
+ 0.831889 5 22 tcp 40 ------- 0 6.1416 22.837 0 30624
d 0.831889 5 22 tcp 40 ------- 0 6.1416 22.837 0 30624
+ 0.835645 5 22 tcp 40 ------- 0 14.1557 22.911 0 29206
d 0.835645 5 22 tcp 40 ------- 0 14.1557 22.911 0 29206
+ 0.844171 5 22 tcp 40 ------- 0 5.1488 18.384 0 32631
d 0.844171 5 22 tcp 40 ------- 0 5.1488 18.384 0 32631
+ 0.850431 5 22 tcp 40 ------- 0 5.1487 18.383 0 32881
d 0.850431 5 22 tcp 40 ------- 0 5.1487 18.383 0 32881
- 0.853171 5 22 tcp 40 ------- 0 6.1382 22.803 0 24872
- 0.855304 5 22 tcp 40 ------- 0 14.1579 22.933 0 25288
- 0.857437 5 22 tcp 40 ------- 0 6.1403 22.824 0 25739
- 0.859571 5 22 tcp 40 ------- 0 6.1422 22.843 0 26617
- 0.861704 5 22 tcp 40 ------- 0 3.1408 22.703 0 28222
- 0.863837 5 22 tcp 40 ------- 0 4.1329 22.754 0 28794
- 0.865971 5 22 tcp 40 ------- 0 24.463 22.1072 0 25709
- 0.868104 5 22 ack 40 ------- 0 20.1331 22.570 0 29328
r 0.869081 5 22 tcp 1540 ---A--- 0 3.1399 22.694 1 25472
- 0.870237 5 22 tcp 40 ------- 0 6.1412 22.833 0 28150
r 0.871214 5 22 tcp 40 ------- 0 6.1382 22.803 0 24872
r 0.873348 5 22 tcp 40 ------- 0 14.1579 22.933 0 25288
r 0.875481 5 22 tcp 40 ------- 0 6.1403 22.824 0 25739
r 0.877614 5 22 tcp 40 ------- 0 6.1422 22.843 0 26617
r 0.879748 5 22 tcp 40 ------- 0 3.1408 22.703 0 28222
r 0.881881 5 22 tcp 40 ------- 0 4.1329 22.754 0 28794
+ 0.8838 5 22 tcp 40 ------- 0 5.1496 18.392 0 34396
- 0.8838 5 22 tcp 40 ------- 0 5.1496 18.392 0 34396
r 0.884014 5 22 tcp 40 ------- 0 24.463 22.1072 0 25709
r 0.886148 5 22 ack 40 ------- 0 20.1331 22.570 0 29328
r 0.888281 5 22 tcp 40 ------- 0 6.1412 22.833 0 28150
r 0.901844 5 22 tcp 40 ------- 0 5.1496 18.392 0 34396
+ 0.906024 5 22 tcp 40 ------- 0 14.1567 22.921 0 33332
- 0.906024 5 22 tcp 40 ------- 0 14.1567 22.921 0 33332
+ 0.916284 5 22 tcp 40 ------- 0 20.1392 22.1000 0 35544
- 0.916284 5 22 tcp 40 ------- 0 20.1392 22.1000 0 35544
+ 0.922601 5 22 tcp 40 ------- 0 20.1382 22.990 0 35792
- 0.922601 5 22 tcp 40 ------- 0 20.1382 22.990 0 35792
+ 0.923483 5 22 tcp 40 ------- 0 3.1434 22.729 0 35932
r 0.924068 5 22 tcp 40 ------- 0 14.1567 22.921 0 33332
- 0.924734 5 22 tcp 40 ------- 0 3.1434 22.729 0 35932
+ 0.931336 5 22 ack 40 ------- 0 5.958 22.184 0 36538
- 0.931336 5 22 ack 40 ------- 0 5.958 22.184 0 36538
+ 0.934273 5 22 tcp 40 ------- 0 6.1405 22.826 0 34735
- 0.934273 5 22 tcp 40 ------- 0 6.1405 22.826 0 34735
r 0.934328 5 22 tcp 40 ------- 0 20.1392 22.1000 0 35544
r 0.940645 5 22 tcp 40 ------- 0 20.1382 22.990 0 35792
r 0.942778 5 22 tcp 40 ------- 0 3.1434 22.729 0 35932
+ 0.946973 5 22 tcp 1540 ------- 0 4.1336 22.761 1 37018
- 0.946973 5 22 tcp 1540 ------- 0 4.1336 22.761 1 37018
+ 0.948205 5 22 tcp 1540 ------- 0 4.1336 22.761 2 37019
r 0.94938 5 22 ack 40 ------- 0 5.958 22.184 0 36538
r 0.952317 5 22 tcp 40 ------- 0 6.1405 22.826 0 34735
+ 0.962495 5 22 tcp 40 ------- 0 3.1447 22.742 0 37525
+ 0.966749 5 22 tcp 40 ------- 0 24.474 22.1083 0 31529
+ 0.968591 5 22 ack 40 ------- 0 3.706 22.111 0 37790
+ 0.974396 5 22 ack 40 ------- 0 20.1190 18.999 0 38037
+ 0.989569 5 22 ack 40 ------- 0 6.898 22.281 0 37305
+ 0.993133 5 22 ack 40 ------- 0 15.1220 22.437 0 37574
+ 0.999937 5 22 ack 40 ------- 0 6.885 22.268 0 37884
+ 1.007585 5 22 ack 40 ------- 0 6.863 22.246 0 38252
- 1.029106 5 22 tcp 1540 ------- 0 4.1336 22.761 2 37019
+ 1.035199 5 22 tcp 40 ------- 0 21.1078 22.1046 0 36248
r 1.045017 5 22 tcp 1540 ------- 0 4.1336 22.761 1 37018
+ 1.048686 5 22 tcp 40 ------- 0 3.1391 22.686 0 41232
d 1.048686 5 22 tcp 40 ------- 0 3.1391 22.686 0 41232
+ 1.062365 5 22 tcp 40 ------- 0 14.1560 22.914 0 40475
d 1.062365 5 22 tcp 40 ------- 0 14.1560 22.914 0 40475
+ 1.071309 5 22 tcp 40 ------- 0 24.468 22.1077 0 37177
d 1.071309 5 22 tcp 40 ------- 0 24.468 22.1077 0 37177
+ 1.081421 5 22 ack 40 ------- 0 24.1019 22.1088 0 39107
d 1.081421 5 22 ack 40 ------- 0 24.1019 22.1088 0 39107
+ 1.084497 5 22 tcp 40 ------- 0 6.1377 22.798 0 41255
d 1.084497 5 22 tcp 40 ------- 0 6.1377 22.798 0 41255
+ 1.090881 5 22 tcp 40 ------- 0 6.1363 22.784 0 41795
d 1.090881 5 22 tcp 40 ------- 0 6.1363 22.784 0 41795
+ 1.091137 5 22 tcp 40 ------- 0 20.621 18.948 0 43149
d 1.091137 5 22 tcp 40 ------- 0 20.621 18.948 0 43149
+ 1.094075 5 22 tcp 40 ------- 0 24.456 22.1065 0 40127
d 1.094075 5 22 tcp 40 ------- 0 24.456 22.1065 0 40127
+ 1.109391 5 22 tcp 40 ------- 0 21.1047 22.1015 0 37533
d 1.109391 5 22 tcp 40 ------- 0 21.1047 22.1015 0 37533
- 1.11124 5 22 tcp 40 ------- 0 3.1447 22.742 0 37525
+ 1.11267 5 22 ack 40 ------- 0 5.875 18.106 0 44418
- 1.113373 5 22 tcp 40 ------- 0 24.474 22.1083 0 31529
- 1.115506 5 22 ack 40 ------- 0 3.706 22.111 0 37790
- 1.11764 5 22 ack 40 ------- 0 20.1190 18.999 0 38037
- 1.119773 5 22 ack 40 ------- 0 6.898 22.281 0 37305
- 1.121906 5 22 ack 40 ------- 0 15.1220 22.437 0 37574
- 1.12404 5 22 ack 40 ------- 0 6.885 22.268 0 37884
+ 1.124271 5 22 tcp 40 ------- 0 21.1039 22.1007 0 38465
- 1.126173 5 22 ack 40 ------- 0 6.863 22.246 0 38252
r 1.12715 5 22 tcp 1540 ------- 0 4.1336 22.761 2 37019
- 1.128306 5 22 tcp 40 ------- 0 21.1078 22.1046 0 36248
r 1.129283 5 22 tcp 40 ------- 0 3.1447 22.742 0 37525
- 1.13044 5 22 ack 40 ------- 0 5.875 18.106 0 44418
r 1.131417 5 22 tcp 40 ------- 0 24.474 22.1083 0 31529
- 1.132573 5 22 tcp 40 ------- 0 21.1039 22.1007 0 38465
r 1.13355 5 22 ack 40 ------- 0 3.706 22.111 0 37790
r 1.135683 5 22 ack 40 ------- 0 20.1190 18.999 0 38037
r 1.137817 5 22 ack 40 ------- 0 6.898 22.281 0 37305
r 1.13995 5 22 ack 40 ------- 0 15.1220 22.437 0 37574
r 1.142083 5 22 ack 40 ------- 0 6.885 22.268 0 37884
r 1.144217 5 22 ack 40 ------- 0 6.863 22.246 0 38252
r 1.14635 5 22 tcp 40 ------- 0 21.1078 22.1046 0 36248
r 1.148483 5 22 ack 40 ------- 0 5.875 18.106 0 44418
r 1.150617 5 22 tcp 40 ------- 0 21.1039 22.1007 0 38465
+ 1.161003 5 22 tcp 40 ------- 0 15.1404 22.942 0 45222
- 1.161003 5 22 tcp 40 ------- 0 15.1404 22.942 0 45222
+ 1.166564 5 22 ack 40 ------- 0 25.736 22.1129 0 46725
- 1.166564 5 22 ack 40 ------- 0 25.736 22.1129 0 46725
+ 1.172283 5 22 tcp 40 ------- 0 4.1342 22.767 0 46960
- 1.172283 5 22 tcp 40 ------- 0 4.1342 22.767 0 46960
r 1.179047 5 22 tcp 40 ------- 0 15.1404 22.942 0 45222
+ 1.18329 5 22 tcp 40 ------- 0 5.1583 22.781 0 47575
- 1.18329 5 22 tcp 40 ------- 0 5.1583 22.781 0 47575
r 1.184608 5 22 ack 40 ------- 0 25.736 22.1129 0 46725
r 1.190327 5 22 tcp 40 ------- 0 4.1342 22.767 0 46960
+ 1.194828 5 22 tcp 40 ------- 0 5.1578 22.776 0 48080
- 1.194828 5 22 tcp 40 ------- 0 5.1578 22.776 0 48080
+ 1.201067 5 22 tcp 40 ------- 0 14.1563 22.917 0 46847
- 1.201067 5 22 tcp 40 ------- 0 14.1563 22.917 0 46847
+ 1.201203 5 22 ack 40 ------- 0 5.976 22.202 2 48395
r 1.201334 5 22 tcp 40 ------- 0 5.1583 22.781 0 47575
- 1.203201 5 22 ack 40 ------- 0 5.976 22.202 2 48395
+ 1.208113 5 22 ack 40 ------- 0 6.883 22.266 0 47187
- 1.208113 5 22 ack 40 ------- 0 6.883 22.266 0 47187
r 1.212872 5 22 tcp 40 ------- 0 5.1578 22.776 0 48080
r 1.219111 5 22 tcp 40 ------- 0 14.1563 22.917 0 46847
+ 1.219903 5 22 tcp 40 ------- 0 3.1442 22.737 0 48775
- 1.219903 5 22 tcp 40 ------- 0 3.1442 22.737 0 48775
r 1.221245 5 22 ack 40 ------- 0 5.976 22.202 2 48395
r 1.226157 5 22 ack 40 ------- 0 6.883 22.266 0 47187
+ 1.228331 5 22 tcp 1540 ------- 0 4.1335 22.760 4 49247
- 1.228331 5 22 tcp 1540 ------- 0 4.1335 22.760 4 49247
+ 1.237185 5 22 tcp 40 ------- 0 6.1386 22.807 0 48412
r 1.237947 5 22 tcp 40 ------- 0 3.1442 22.737 0 48775
+ 1.248236 5 22 tcp 40 ------- 0 3.1420 22.715 0 50241
+ 1.253324 5 22 tcp 40 ------- 0 3.1405 22.700 0 50425
+ 1.287697 5 22 tcp 40 ------- 0 4.1327 22.752 0 52413
+ 1.29187 5 22 ack 40 ------- 0 5.976 22.202 2 52651
- 1.310465 5 22 tcp 40 ------- 0 6.1386 22.807 0 48412
- 1.312598 5 22 tcp 40 ------- 0 3.1420 22.715 0 50241
- 1.314731 5 22 tcp 40 ------- 0 3.1405 22.700 0 50425
+ 1.314785 5 22 tcp 1540 ------- 0 6.1425 22.846 1 51205
- 1.316865 5 22 tcp 40 ------- 0 4.1327 22.752 0 52413
- 1.318998 5 22 ack 40 ------- 0 5.976 22.202 2 52651
- 1.321131 5 22 tcp 1540 ------- 0 6.1425 22.846 1 51205
r 1.326375 5 22 tcp 1540 ------- 0 4.1335 22.760 4 49247
r 1.328509 5 22 tcp 40 ------- 0 6.1386 22.807 0 48412
+ 1.328849 5 22 tcp 40 ------- 0 6.1407 22.828 0 52283
r 1.330642 5 22 tcp 40 ------- 0 3.1420 22.715 0 50241
+ 1.33175 5 22 tcp 40 ------- 0 21.1074 22.1042 0 47489
r 1.332775 5 22 tcp 40 ------- 0 3.1405 22.700 0 50425
r 1.334909 5 22 tcp 40 ------- 0 4.1327 22.752 0 52413
r 1.337042 5 22 ack 40 ------- 0 5.976 22.202 2 52651
+ 1.342498 5 22 tcp 40 ------- 0 20.1393 22.1001 0 54436
+ 1.343982 5 22 tcp 40 ------- 0 5.1489 18.385 0 54932
+ 1.37004 5 22 tcp 1540 ------- 0 24.453 22.1062 1 51907
+ 1.374003 5 22 ack 40 ------- 0 5.976 22.202 3 56272
+ 1.391144 5 22 tcp 40 ------- 0 24.449 22.1058 0 52132
+ 1.398895 5 22 tcp 40 ------- 0 3.1413 22.708 0 57034
- 1.403265 5 22 tcp 40 ------- 0 6.1407 22.828 0 52283
- 1.405398 5 22 tcp 40 ------- 0 21.1074 22.1042 0 47489
- 1.407531 5 22 tcp 40 ------- 0 20.1393 22.1001 0 54436
- 1.409665 5 22 tcp 40 ------- 0 5.1489 18.385 0 54932
- 1.411798 5 22 tcp 1540 ------- 0 24.453 22.1062 1 51907
r 1.419175 5 22 tcp 1540 ------- 0 6.1425 22.846 1 51205
r 1.421309 5 22 tcp 40 ------- 0 6.1407 22.828 0 52283
r 1.423442 5 22 tcp 40 ------- 0 21.1074 22.1042 0 47489
r 1.425575 5 22 tcp 40 ------- 0 20.1393 22.1001 0 54436
r 1.427709 5 22 tcp 40 ------- 0 5.1489 18.385 0 54932
+ 1.458499 5 22 tcp 40 ------- 0 15.1403 22.941 0 58282
- 1.493931 5 22 ack 40 ------- 0 5.976 22.202 3 56272
- 1.496065 5 22 tcp 40 ------- 0 24.449 22.1058 0 52132
+ 1.496383 5 22 tcp 40 ------- 0 3.1435 22.730 0 61331
- 1.498198 5 22 tcp 40 ------- 0 3.1413 22.708 0 57034
- 1.500331 5 22 tcp 40 ------- 0 15.1403 22.941 0 58282
- 1.502465 5 22 tcp 40 ------- 0 3.1435 22.730 0 61331
r 1.509842 5 22 tcp 1540 ------- 0 24.453 22.1062 1 51907
r 1.511975 5 22 ack 40 ------- 0 5.976 22.202 3 56272
r 1.514109 5 22 tcp 40 ------- 0 24.449 22.1058 0 52132
r 1.516242 5 22 tcp 40 ------- 0 3.1413 22.708 0 57034
r 1.518375 5 22 tcp 40 ------- 0 15.1403 22.941 0 58282
r 1.520509 5 22 tcp 40 ------- 0 3.1435 22.730 0 61331
+ 1.521503 5 22 tcp 40 ------- 0 3.1390 22.685 0 62653
- 1.521503 5 22 tcp 40 ------- 0 3.1390 22.685 0 62653
r 1.539547 5 22 tcp 40 ------- 0 3.1390 22.685 0 62653
+ 1.562389 5 22 tcp 40 ------- 0 24.446 22.1055 0 59300
- 1.562389 5 22 tcp 40 ------- 0 24.446 22.1055 0 59300
+ 1.565045 5 22 ack 40 ------- 0 12.894 22.367 1 62960
- 1.565045 5 22 ack 40 ------- 0 12.894 22.367 1 62960
+ 1.565457 5 22 tcp 40 ------- 0 6.1365 22.786 0 63155
+ 1.565538 5 22 tcp 40 ------- 0 20.626 18.953 0 64750
- 1.567178 5 22 tcp 40 ------- 0 6.1365 22.786 0 63155
- 1.569312 5 22 tcp 40 ------- 0 20.626 18.953 0 64750
+ 1.575727 5 22 tcp 40 ------- 0 5.1484 18.380 0 65589
- 1.575727 5 22 tcp 40 ------- 0 5.1484 18.380 0 65589
r 1.580433 5 22 tcp 40 ------- 0 24.446 22.1055 0 59300
r 1.583089 5 22 ack 40 ------- 0 12.894 22.367 1 62960
r 1.585222 5 22 tcp 40 ------- 0 6.1365 22.786 0 63155
r 1.587356 5 22 tcp 40 ------- 0 20.626 18.953 0 64750
r 1.593771 5 22 tcp 40 ------- 0 5.1484 18.380 0 65589
+ 1.595327 5 22 tcp 40 ------- 0 3.1437 22.732 0 66068
- 1.595327 5 22 tcp 40 ------- 0 3.1437 22.732 0 66068
r 1.613371 5 22 tcp 40 ------- 0 3.1437 22.732 0 66068
+ 1.613587 5 22 tcp 40 ------- 0 15.1398 22.936 0 65106
- 1.613587 5 22 tcp 40 ------- 0 15.1398 22.936 0 65106
+ 1.620515 5 22 tcp 1540 ------- 0 15.1399 22.937 1 65773
- 1.620515 5 22 tcp 1540 ------- 0 15.1399 22.937 1 65773
+ 1.626803 5 22 ack 40 ------- 0 5.968 22.194 2 67908
r 1.63163 5 22 tcp 40 ------- 0 15.1398 22.936 0 65106
+ 1.63419 5 22 tcp 40 ------- 0 3.1411 22.706 0 67914
+ 1.636883 5 22 tcp 40 ------- 0 24.457 22.1066 0 63342
+ 1.649637 5 22 tcp 40 ------- 0 4.1344 22.769 0 68820
+ 1.649701 5 22 ack 40 ------- 0 12.894 22.367 2 67435
+ 1.666477 5 22 tcp 40 ------- 0 21.1066 22.1034 0 65102
+ 1.680913 5 22 tcp 40 ------- 0 5.1576 22.774 0 70420
+ 1.683893 5 22 tcp 40 ------- 0 4.1337 22.762 0 70303
+ 1.700741 5 22 tcp 40 ------- 0 24.445 22.1054 0 67218
- 1.702648 5 22 ack 40 ------- 0 5.968 22.194 2 67908
- 1.704781 5 22 tcp 40 ------- 0 3.1411 22.706 0 67914
- 1.706915 5 22 tcp 40 ------- 0 24.457 22.1066 0 63342
- 1.709048 5 22 tcp 40 ------- 0 4.1344 22.769 0 68820
- 1.711181 5 22 ack 40 ------- 0 12.894 22.367 2 67435
+ 1.713203 5 22 ack 40 ------- 0 5.964 22.190 2 71854
- 1.713315 5 22 tcp 40 ------- 0 21.1066 22.1034 0 65102
- 1.715448 5 22 tcp 40 ------- 0 5.1576 22.774 0 70420
- 1.717581 5 22 tcp 40 ------- 0 4.1337 22.762 0 70303
r 1.718558 5 22 tcp 1540 ------- 0 15.1399 22.937 1 65773
- 1.719715 5 22 tcp 40 ------- 0 24.445 22.1054 0 67218
r 1.720692 5 22 ack 40 ------- 0 5.968 22.194 2 67908
- 1.721848 5 22 ack 40 ------- 0 5.964 22.190 2 71854
r 1.722825 5 22 tcp 40 ------- 0 3.1411 22.706 0 67914
r 1.724958 5 22 tcp 40 ------- 0 24.457 22.1066 0 63342
+ 1.725898 5 22 tcp 40 ------- 0 3.1427 22.722 0 72110
- 1.725898 5 22 tcp 40 ------- 0 3.1427 22.722 0 72110
r 1.727092 5 22 tcp 40 ------- 0 4.1344 22.769 0 68820
r 1.729225 5 22 ack 40 ------- 0 12.894 22.367 2 67435
r 1.731358 5 22 tcp 40 ------- 0 21.1066 22.1034 0 65102
r 1.733492 5 22 tcp 40 ------- 0 5.1576 22.774 0 70420
r 1.735625 5 22 tcp 40 ------- 0 4.1337 22.762 0 70303
r 1.737758 5 22 tcp 40 ------- 0 24.445 22.1054 0 67218
+ 1.737889 5 22 tcp 1540 ------- 0 6.1400 22.821 1 70716
- 1.737889 5 22 tcp 1540 ------- 0 6.1400 22.821 1 70716
r 1.739892 5 22 ack 40 ------- 0 5.964 22.190 2 71854
+ 1.740341 5 22 tcp 40 ------- 0 24.467 22.1076 0 69267
r 1.743942 5 22 tcp 40 ------- 0 3.1427 22.722 0 72110
+ 1.746713 5 22 tcp 40 ------- 0 5.1492 18.388 0 73451
+ 1.774068 5 22 ack 40 ------- 0 25.740 22.1133 0 74529
+ 1.781135 5 22 tcp 40 ------- 0 3.1409 22.704 0 74477
+ 1.784863 5 22 ack 40 ------- 0 3.711 22.116 0 74861
+ 1.802641 5 22 tcp 40 ------- 0 6.1387 22.808 0 74603
+ 1.807487 5 22 tcp 40 ------- 0 3.1452 22.747 0 75946
- 1.820023 5 22 tcp 40 ------- 0 24.467 22.1076 0 69267
- 1.822156 5 22 tcp 40 ------- 0 5.1492 18.388 0 73451
- 1.824289 5 22 ack 40 ------- 0 25.740 22.1133 0 74529
- 1.826423 5 22 tcp 40 ------- 0 3.1409 22.704 0 74477
+ 1.827336 5 22 ack 40 ------- 0 5.971 22.197 0 77185
- 1.828556 5 22 ack 40 ------- 0 3.711 22.116 0 74861
+ 1.82947 5 22 ack 40 ------- 0 5.974 22.200 0 77297
- 1.830689 5 22 tcp 40 ------- 0 6.1387 22.808 0 74603
- 1.832823 5 22 tcp 40 ------- 0 3.1452 22.747 0 75946
- 1.834956 5 22 ack 40 ------- 0 5.971 22.197 0 77185
r 1.835933 5 22 tcp 1540 ------- 0 6.1400 22.821 1 70716
- 1.837089 5 22 ack 40 ------- 0 5.974 22.200 0 77297
+ 1.838003 5 22 ack 40 ------- 0 5.876 18.107 0 77614
r 1.838067 5 22 tcp 40 ------- 0 24.467 22.1076 0 69267
- 1.839223 5 22 ack 40 ------- 0 5.876 18.107 0 77614
r 1.8402 5 22 tcp 40 ------- 0 5.1492 18.388 0 73451
r 1.842333 5 22 ack 40 ------- 0 25.740 22.1133 0 74529
r 1.844467 5 22 tcp 40 ------- 0 3.1409 22.704 0 74477
+ 1.846536 5 22 ack 40 ------- 0 5.1013 22.239 0 77990
- 1.846536 5 22 ack 40 ------- 0 5.1013 22.239 0 77990
r 1.8466 5 22 ack 40 ------- 0 3.711 22.116 0 74861
r 1.848733 5 22 tcp 40 ------- 0 6.1387 22.808 0 74603
+ 1.848975 5 22 tcp 40 ------- 0 3.1446 22.741 0 77716
- 1.848975 5 22 tcp 40 ------- 0 3.1446 22.741 0 77716
r 1.850867 5 22 tcp 40 ------- 0 3.1452 22.747 0 75946
r 1.853 5 22 ack 40 ------- 0 5.971 22.197 0 77185
r 1.855133 5 22 ack 40 ------- 0 5.974 22.200 0 77297
r 1.857267 5 22 ack 40 ------- 0 5.876 18.107 0 77614
+ 1.862826 5 22 tcp 1540 ------- 0 20.1392 22.1000 1 77882
- 1.862826 5 22 tcp 1540 ------- 0 20.1392 22.1000 1 77882
r 1.86458 5 22 ack 40 ------- 0 5.1013 22.239 0 77990
+ 1.864801 5 22 tcp 40 ------- 0 6.1388 22.809 0 77588
r 1.867019 5 22 tcp 40 ------- 0 3.1446 22.741 0 77716
+ 1.867754 5 22 tcp 1540 ------- 0 20.1392 22.1000 2 77883