+ 0.001833 17 19 rtProtoDV 26 ------- 0 17.1417 19.1297 -1 20
- 0.001833 17 19 rtProtoDV 26 ------- 0 17.1417 19.1297 -1 20
+ 0.004026 17 19 rtProtoDV 26 ------- 0 17.1417 19.1297 -1 57
- 0.004026 17 19 rtProtoDV 26 ------- 0 17.1417 19.1297 -1 57
r 0.004338 17 19 rtProtoDV 26 ------- 0 17.1417 19.1297 -1 20
+ 0.005991 17 19 rtProtoDV 26 ------- 0 17.1417 19.1297 -1 129
- 0.005991 17 19 rtProtoDV 26 ------- 0 17.1417 19.1297 -1 129
+ 0.006319 17 19 rtProtoDV 26 ------- 0 17.1417 19.1297 -1 136
r 0.006532 17 19 rtProtoDV 26 ------- 0 17.1417 19.1297 -1 57
+ 0.006784 17 19 rtProtoDV 26 ------- 0 17.1417 19.1297 -1 146
- 0.007378 17 19 rtProtoDV 26 ------- 0 17.1417 19.1297 -1 136
r 0.008497 17 19 rtProtoDV 26 ------- 0 17.1417 19.1297 -1 129
- 0.008765 17 19 rtProtoDV 26 ------- 0 17.1417 19.1297 -1 146
+ 0.009823 17 19 rtProtoDV 26 ------- 0 17.1417 19.1297 -1 277
r 0.009883 17 19 rtProtoDV 26 ------- 0 17.1417 19.1297 -1 136
- 0.010151 17 19 rtProtoDV 26 ------- 0 17.1417 19.1297 -1 277
r 0.01127 17 19 rtProtoDV 26 ------- 0 17.1417 19.1297 -1 146
+ 0.011291 17 19 rtProtoDV 26 ------- 0 17.1417 19.1297 -1 381
- 0.011538 17 19 rtProtoDV 26 ------- 0 17.1417 19.1297 -1 381
r 0.012657 17 19 rtProtoDV 26 ------- 0 17.1417 19.1297 -1 277
r 0.014043 17 19 rtProtoDV 26 ------- 0 17.1417 19.1297 -1 381
+ 0.014922 17 19 rtProtoDV 26 ------- 0 17.1417 19.1297 -1 565
- 0.014922 17 19 rtProtoDV 26 ------- 0 17.1417 19.1297 -1 565
+ 0.01647 17 19 rtProtoDV 26 ------- 0 17.1417 19.1297 -1 611
- 0.01647 17 19 rtProtoDV 26 ------- 0 17.1417 19.1297 -1 611
+ 0.01705 17 19 rtProtoDV 26 ------- 0 17.1417 19.1297 -1 639
r 0.017428 17 19 rtProtoDV 26 ------- 0 17.1417 19.1297 -1 565
- 0.017857 17 19 rtProtoDV 26 ------- 0 17.1417 19.1297 -1 639
+ 0.018722 17 19 rtProtoDV 26 ------- 0 17.1417 19.1297 -1 700
r 0.018976 17 19 rtProtoDV 26 ------- 0 17.1417 19.1297 -1 611
- 0.019244 17 19 rtProtoDV 26 ------- 0 17.1417 19.1297 -1 700
r 0.020362 17 19 rtProtoDV 26 ------- 0 17.1417 19.1297 -1 639
r 0.021749 17 19 rtProtoDV 26 ------- 0 17.1417 19.1297 -1 700
+ 0.024467 17 19 ack 40 ------- 0 17.1225 19.493 0 868
- 0.024467 17 19 ack 40 ------- 0 17.1225 19.493 0 868
r 0.027719 17 19 ack 40 ------- 0 17.1225 19.493 0 868
+ 0.112147 17 19 ack 40 ------- 0 17.1225 19.493 1 3455
- 0.112147 17 19 ack 40 ------- 0 17.1225 19.493 1 3455
r 0.115399 17 19 ack 40 ------- 0 17.1225 19.493 1 3455
+ 0.19428 17 19 ack 40 ------- 0 17.1225 19.493 2 6273
- 0.19428 17 19 ack 40 ------- 0 17.1225 19.493 2 6273
r 0.197532 17 19 ack 40 ------- 0 17.1225 19.493 2 6273
+ 0.199187 17 19 ack 40 ------- 0 17.1205 19.473 0 6482
- 0.199187 17 19 ack 40 ------- 0 17.1205 19.473 0 6482
r 0.202439 17 19 ack 40 ------- 0 17.1205 19.473 0 6482
+ 0.206973 17 19 ack 40 ------- 0 17.1224 19.492 0 6769
- 0.206973 17 19 ack 40 ------- 0 17.1224 19.492 0 6769
r 0.210225 17 19 ack 40 ------- 0 17.1224 19.492 0 6769
+ 0.211828 17 19 rtProtoDV 26 ------- 0 17.1417 19.1297 -1 6923
- 0.211828 17 19 rtProtoDV 26 ------- 0 17.1417 19.1297 -1 6923
r 0.214334 17 19 rtProtoDV 26 ------- 0 17.1417 19.1297 -1 6923
+ 0.289107 17 19 ack 40 ------- 0 17.1225 19.493 3 9827
- 0.289107 17 19 ack 40 ------- 0 17.1225 19.493 3 9827
r 0.292359 17 19 ack 40 ------- 0 17.1225 19.493 3 9827
+ 0.37124 17 19 ack 40 ------- 0 17.1225 19.493 4 13127
- 0.37124 17 19 ack 40 ------- 0 17.1225 19.493 4 13127
r 0.374492 17 19 ack 40 ------- 0 17.1225 19.493 4 13127
+ 0.375507 17 19 ack 40 ------- 0 17.1211 19.479 0 13304
- 0.375507 17 19 ack 40 ------- 0 17.1211 19.479 0 13304
r 0.378759 17 19 ack 40 ------- 0 17.1211 19.479 0 13304
+ 0.45764 17 19 ack 40 ------- 0 17.1225 19.493 5 16660
- 0.45764 17 19 ack 40 ------- 0 17.1225 19.493 5 16660
r 0.460892 17 19 ack 40 ------- 0 17.1225 19.493 5 16660
+ 0.477609 17 19 tcp 40 ------- 0 17.1324 19.1113 0 17465
- 0.477609 17 19 tcp 40 ------- 0 17.1324 19.1113 0 17465
r 0.480861 17 19 tcp 40 ------- 0 17.1324 19.1113 0 17465
+ 0.511562 17 19 ack 40 ------- 0 18.946 19.548 0 13267
- 0.511562 17 19 ack 40 ------- 0 18.946 19.548 0 13267
r 0.514814 17 19 ack 40 ------- 0 18.946 19.548 0 13267
+ 0.539773 17 19 ack 40 ------- 0 17.1225 19.493 6 19883
- 0.539773 17 19 ack 40 ------- 0 17.1225 19.493 6 19883
r 0.543025 17 19 ack 40 ------- 0 17.1225 19.493 6 19883
+ 0.546523 17 19 tcp 40 ------- 0 17.1319 19.1108 0 20127
- 0.546523 17 19 tcp 40 ------- 0 17.1319 19.1108 0 20127
r 0.549775 17 19 tcp 40 ------- 0 17.1319 19.1108 0 20127
+ 0.62404 17 19 ack 40 ------- 0 17.1205 19.473 1 23373
- 0.62404 17 19 ack 40 ------- 0 17.1205 19.473 1 23373
r 0.627292 17 19 ack 40 ------- 0 17.1205 19.473 1 23373
+ 0.630609 17 19 tcp 40 ------- 0 17.1318 19.1107 0 23645
- 0.630609 17 19 tcp 40 ------- 0 17.1318 19.1107 0 23645
r 0.633861 17 19 tcp 40 ------- 0 17.1318 19.1107 0 23645
+ 0.684457 17 19 tcp 40 ------- 0 17.1326 19.1115 0 25852
- 0.684457 17 19 tcp 40 ------- 0 17.1326 19.1115 0 25852
r 0.687709 17 19 tcp 40 ------- 0 17.1326 19.1115 0 25852
+ 0.706173 17 19 ack 40 ------- 0 17.1205 19.473 2 26795
- 0.706173 17 19 ack 40 ------- 0 17.1205 19.473 2 26795
r 0.709425 17 19 ack 40 ------- 0 17.1205 19.473 2 26795
+ 0.764746 17 19 tcp 40 ------- 0 18.990 19.1123 0 25745
- 0.764746 17 19 tcp 40 ------- 0 18.990 19.1123 0 25745
r 0.767998 17 19 tcp 40 ------- 0 18.990 19.1123 0 25745
+ 0.788307 17 19 ack 40 ------- 0 17.1224 19.492 1 30262
- 0.788307 17 19 ack 40 ------- 0 17.1224 19.492 1 30262
r 0.791559 17 19 ack 40 ------- 0 17.1224 19.492 1 30262
+ 0.816199 17 19 tcp 40 ------- 0 17.1325 19.1114 0 31465
- 0.816199 17 19 tcp 40 ------- 0 17.1325 19.1114 0 31465
r 0.819451 17 19 tcp 40 ------- 0 17.1325 19.1114 0 31465
+ 0.87044 17 19 ack 40 ------- 0 17.1224 19.492 2 33835
- 0.87044 17 19 ack 40 ------- 0 17.1224 19.492 2 33835
+ 0.872573 17 19 ack 40 ------- 0 17.1236 19.504 0 33927
- 0.872573 17 19 ack 40 ------- 0 17.1236 19.504 0 33927
r 0.873692 17 19 ack 40 ------- 0 17.1224 19.492 2 33835
r 0.875825 17 19 ack 40 ------- 0 17.1236 19.504 0 33927
+ 0.92771 17 19 tcp 40 ------- 0 17.1330 19.1119 0 36407
- 0.92771 17 19 tcp 40 ------- 0 17.1330 19.1119 0 36407
r 0.930962 17 19 tcp 40 ------- 0 17.1330 19.1119 0 36407
+ 0.95684 17 19 ack 40 ------- 0 17.1225 19.493 7 37624
- 0.95684 17 19 ack 40 ------- 0 17.1225 19.493 7 37624
r 0.960092 17 19 ack 40 ------- 0 17.1225 19.493 7 37624
+ 1.006922 17 19 tcp 40 ------- 0 18.998 19.1131 0 33467
- 1.006922 17 19 tcp 40 ------- 0 18.998 19.1131 0 33467
r 1.010174 17 19 tcp 40 ------- 0 18.998 19.1131 0 33467
+ 1.038973 17 19 ack 40 ------- 0 17.1225 19.493 8 41158
- 1.038973 17 19 ack 40 ------- 0 17.1225 19.493 8 41158
r 1.042225 17 19 ack 40 ------- 0 17.1225 19.493 8 41158
+ 1.057354 17 19 ack 40 ------- 0 18.922 19.524 0 34637
- 1.057354 17 19 ack 40 ------- 0 18.922 19.524 0 34637
r 1.060606 17 19 ack 40 ------- 0 18.922 19.524 0 34637
+ 1.12324 17 19 ack 40 ------- 0 17.1225 19.493 9 44909
- 1.12324 17 19 ack 40 ------- 0 17.1225 19.493 9 44909
r 1.126492 17 19 ack 40 ------- 0 17.1225 19.493 9 44909
+ 1.165066 17 19 ack 40 ------- 0 18.939 19.541 0 41979
- 1.165066 17 19 ack 40 ------- 0 18.939 19.541 0 41979
r 1.168318 17 19 ack 40 ------- 0 18.939 19.541 0 41979
+ 1.205373 17 19 ack 40 ------- 0 17.1225 19.493 10 48583
- 1.205373 17 19 ack 40 ------- 0 17.1225 19.493 10 48583
r 1.208625 17 19 ack 40 ------- 0 17.1225 19.493 10 48583
+ 1.228042 17 19 tcp 40 ------- 0 18.997 19.1130 0 46941
- 1.228042 17 19 tcp 40 ------- 0 18.997 19.1130 0 46941
r 1.231294 17 19 tcp 40 ------- 0 18.997 19.1130 0 46941
+ 1.287507 17 19 ack 40 ------- 0 17.1211 19.479 1 52476
- 1.287507 17 19 ack 40 ------- 0 17.1211 19.479 1 52476
r 1.290759 17 19 ack 40 ------- 0 17.1211 19.479 1 52476
+ 1.347627 17 19 tcp 40 ------- 0 17.1320 19.1109 0 55082
- 1.347627 17 19 tcp 40 ------- 0 17.1320 19.1109 0 55082
r 1.350879 17 19 tcp 40 ------- 0 17.1320 19.1109 0 55082
+ 1.36964 17 19 ack 40 ------- 0 17.1211 19.479 2 56085
- 1.36964 17 19 ack 40 ------- 0 17.1211 19.479 2 56085
+ 1.371773 17 19 ack 40 ------- 0 17.1230 19.498 0 56200
- 1.371773 17 19 ack 40 ------- 0 17.1230 19.498 0 56200
r 1.372892 17 19 ack 40 ------- 0 17.1211 19.479 2 56085
r 1.375025 17 19 ack 40 ------- 0 17.1230 19.498 0 56200
+ 1.37604 17 19 ack 40 ------- 0 17.1206 19.474 0 56369
- 1.37604 17 19 ack 40 ------- 0 17.1206 19.474 0 56369
r 1.379292 17 19 ack 40 ------- 0 17.1206 19.474 0 56369
+ 1.452447 17 19 tcp 40 ------- 0 17.1329 19.1118 0 59780
- 1.452447 17 19 tcp 40 ------- 0 17.1329 19.1118 0 59780
r 1.455699 17 19 tcp 40 ------- 0 17.1329 19.1118 0 59780
+ 1.460307 17 19 ack 40 ------- 0 17.1225 19.493 11 60174
- 1.460307 17 19 ack 40 ------- 0 17.1225 19.493 11 60174
r 1.463559 17 19 ack 40 ------- 0 17.1225 19.493 11 60174
+ 1.532387 17 19 tcp 40 ------- 0 17.1321 19.1110 0 63553
- 1.532387 17 19 tcp 40 ------- 0 17.1321 19.1110 0 63553
r 1.535639 17 19 tcp 40 ------- 0 17.1321 19.1110 0 63553
+ 1.537738 17 19 tcp 40 ------- 0 18.994 19.1127 0 60007
- 1.537738 17 19 tcp 40 ------- 0 18.994 19.1127 0 60007
r 1.54099 17 19 tcp 40 ------- 0 18.994 19.1127 0 60007
+ 1.54244 17 19 ack 40 ------- 0 17.1225 19.493 12 64075
- 1.54244 17 19 ack 40 ------- 0 17.1225 19.493 12 64075
+ 1.544573 17 19 tcp 1540 ------- 0 17.1324 19.1113 1 64162
+ 1.544573 17 19 tcp 1540 ------- 0 17.1324 19.1113 2 64163
- 1.544573 17 19 tcp 1540 ------- 0 17.1324 19.1113 1 64162
r 1.545692 17 19 ack 40 ------- 0 17.1225 19.493 12 64075
- 1.626707 17 19 tcp 1540 ------- 0 17.1324 19.1113 2 64163
r 1.627825 17 19 tcp 1540 ------- 0 17.1324 19.1113 1 64162
+ 1.674378 17 19 tcp 40 ------- 0 18.991 19.1124 0 66016
- 1.70884 17 19 tcp 40 ------- 0 18.991 19.1124 0 66016
r 1.709959 17 19 tcp 1540 ------- 0 17.1324 19.1113 2 64163
r 1.712092 17 19 tcp 40 ------- 0 18.991 19.1124 0 66016
+ 1.735562 17 19 ack 40 ------- 0 18.946 19.548 1 68720
- 1.735562 17 19 ack 40 ------- 0 18.946 19.548 1 68720
r 1.738814 17 19 ack 40 ------- 0 18.946 19.548 1 68720
+ 1.793107 17 19 ack 40 ------- 0 17.1224 19.492 2 75646
- 1.793107 17 19 ack 40 ------- 0 17.1224 19.492 2 75646
r 1.796359 17 19 ack 40 ------- 0 17.1224 19.492 2 75646
+ 1.802442 17 19 ack 40 ------- 0 18.946 19.548 2 72924
- 1.802442 17 19 ack 40 ------- 0 18.946 19.548 2 72924
r 1.805694 17 19 ack 40 ------- 0 18.946 19.548 2 72924
+ 1.87524 17 19 ack 40 ------- 0 17.1225 19.493 13 79436
- 1.87524 17 19 ack 40 ------- 0 17.1225 19.493 13 79436
r 1.878492 17 19 ack 40 ------- 0 17.1225 19.493 13 79436
+ 1.878962 17 19 tcp 40 ------- 0 17.1328 19.1117 0 79611
- 1.878962 17 19 tcp 40 ------- 0 17.1328 19.1117 0 79611
r 1.882215 17 19 tcp 40 ------- 0 17.1328 19.1117 0 79611
+ 1.886623 17 19 tcp 40 ------- 0 17.1323 19.1112 0 79985
- 1.886623 17 19 tcp 40 ------- 0 17.1323 19.1112 0 79985
r 1.889875 17 19 tcp 40 ------- 0 17.1323 19.1112 0 79985
+ 1.957373 17 19 ack 40 ------- 0 17.1225 19.493 14 83470
- 1.957373 17 19 ack 40 ------- 0 17.1225 19.493 14 83470
r 1.960625 17 19 ack 40 ------- 0 17.1225 19.493 14 83470
+ 1.96164 17 19 tcp 1540 ------- 0 17.1319 19.1108 1 83682
- 1.96164 17 19 tcp 1540 ------- 0 17.1319 19.1108 1 83682
+ 1.96164 17 19 tcp 1540 ------- 0 17.1319 19.1108 2 83683
+ 1.965907 17 19 ack 40 ------- 0 17.1201 19.469 0 83860
+ 2.014784 17 19 tcp 40 ------- 0 17.1327 19.1116 0 86168
+ 2.034378 17 19 tcp 40 ------- 0 18.989 19.1122 0 81178
- 2.043773 17 19 tcp 1540 ------- 0 17.1319 19.1108 2 83683
r 2.044892 17 19 tcp 1540 ------- 0 17.1319 19.1108 1 83682
+ 2.04804 17 19 ack 40 ------- 0 17.1205 19.473 3 87716
+ 2.09435 17 19 tcp 40 ------- 0 17.1316 19.1105 0 89896
- 2.125907 17 19 ack 40 ------- 0 17.1201 19.469 0 83860
r 2.127025 17 19 tcp 1540 ------- 0 17.1319 19.1108 2 83683
- 2.12804 17 19 tcp 40 ------- 0 17.1327 19.1116 0 86168
r 2.129159 17 19 ack 40 ------- 0 17.1201 19.469 0 83860
+ 2.130173 17 19 ack 40 ------- 0 17.1205 19.473 4 91454
- 2.130173 17 19 tcp 40 ------- 0 18.989 19.1122 0 81178
r 2.131292 17 19 tcp 40 ------- 0 17.1327 19.1116 0 86168
- 2.132307 17 19 ack 40 ------- 0 17.1205 19.473 3 87716
r 2.133425 17 19 tcp 40 ------- 0 18.989 19.1122 0 81178
+ 2.13444 17 19 tcp 1540 ------- 0 17.1318 19.1107 1 91675
+ 2.13444 17 19 tcp 1540 ------- 0 17.1318 19.1107 2 91676
- 2.13444 17 19 tcp 40 ------- 0 17.1316 19.1105 0 89896
r 2.135559 17 19 ack 40 ------- 0 17.1205 19.473 3 87716
+ 2.136573 17 19 tcp 1540 ------- 0 17.1326 19.1115 1 91792
+ 2.136573 17 19 tcp 1540 ------- 0 17.1326 19.1115 2 91793
- 2.136573 17 19 ack 40 ------- 0 17.1205 19.473 4 91454
r 2.137692 17 19 tcp 40 ------- 0 17.1316 19.1105 0 89896
+ 2.138707 17 19 ack 40 ------- 0 17.1229 19.497 0 91891
- 2.138707 17 19 tcp 1540 ------- 0 17.1318 19.1107 1 91675
r 2.139825 17 19 ack 40 ------- 0 17.1205 19.473 4 91454
+ 2.149281 17 19 tcp 40 ------- 0 17.1315 19.1104 0 92390
+ 2.177363 17 19 tcp 40 ------- 0 17.1331 19.1120 0 93749
+ 2.22084 17 19 ack 40 ------- 0 17.1205 19.473 5 95775
- 2.22084 17 19 tcp 1540 ------- 0 17.1318 19.1107 2 91676
r 2.221959 17 19 tcp 1540 ------- 0 17.1318 19.1107 1 91675
+ 2.228042 17 19 tcp 40 ------- 0 18.995 19.1128 0 92084
+ 2.228426 17 19 ack 40 ------- 0 18.916 19.518 0 92403
+ 2.273546 17 19 tcp 40 ------- 0 18.992 19.1125 0 94077
+ 2.302973 17 19 ack 40 ------- 0 17.1205 19.473 6 99623
d 2.302973 17 19 ack 40 ------- 0 17.1205 19.473 6 99623
- 2.302973 17 19 tcp 1540 ------- 0 17.1326 19.1115 1 91792
r 2.304092 17 19 tcp 1540 ------- 0 17.1318 19.1107 2 91676
+ 2.355702 17 19 tcp 40 ------- 0 17.1314 19.1103 0 102038
- 2.385107 17 19 tcp 1540 ------- 0 17.1326 19.1115 2 91793
r 2.386225 17 19 tcp 1540 ------- 0 17.1326 19.1115 1 91792
+ 2.38724 17 19 ack 40 ------- 0 17.1224 19.492 2 103525
+ 2.390334 17 19 rtProtoDV 26 ------- 0 17.1417 19.1297 -1 103657
d 2.390334 17 19 rtProtoDV 26 ------- 0 17.1417 19.1297 -1 103657
+ 2.393816 17 19 tcp 40 ------- 0 17.1317 19.1106 0 103839
d 2.393816 17 19 tcp 40 ------- 0 17.1317 19.1106 0 103839
+ 2.396253 17 19 tcp 1540 ------- 0 18.990 19.1123 1 100395
d 2.396253 17 19 tcp 1540 ------- 0 18.990 19.1123 1 100395
+ 2.401181 17 19 tcp 1540 ------- 0 18.990 19.1123 2 100396
d 2.401181 17 19 tcp 1540 ------- 0 18.990 19.1123 2 100396
- 2.46724 17 19 ack 40 ------- 0 17.1229 19.497 0 91891
r 2.468359 17 19 tcp 1540 ------- 0 17.1326 19.1115 2 91793
+ 2.469373 17 19 ack 40 ------- 0 17.1224 19.492 3 107256
- 2.469373 17 19 tcp 40 ------- 0 17.1315 19.1104 0 92390
r 2.470492 17 19 ack 40 ------- 0 17.1229 19.497 0 91891
+ 2.471507 17 19 tcp 1540 ------- 0 17.1325 19.1114 1 107361
+ 2.471507 17 19 tcp 1540 ------- 0 17.1325 19.1114 2 107362
d 2.471507 17 19 tcp 1540 ------- 0 17.1325 19.1114 2 107362
- 2.471507 17 19 tcp 40 ------- 0 17.1331 19.1120 0 93749
r 2.472625 17 19 tcp 40 ------- 0 17.1315 19.1104 0 92390
- 2.47364 17 19 ack 40 ------- 0 17.1205 19.473 5 95775
r 2.474759 17 19 tcp 40 ------- 0 17.1331 19.1120 0 93749
- 2.475773 17 19 tcp 40 ------- 0 18.995 19.1128 0 92084
r 2.476892 17 19 ack 40 ------- 0 17.1205 19.473 5 95775
- 2.477907 17 19 ack 40 ------- 0 18.916 19.518 0 92403
r 2.479025 17 19 tcp 40 ------- 0 18.995 19.1128 0 92084
- 2.48004 17 19 tcp 40 ------- 0 18.992 19.1125 0 94077
r 2.481159 17 19 ack 40 ------- 0 18.916 19.518 0 92403
- 2.482173 17 19 tcp 40 ------- 0 17.1314 19.1103 0 102038
r 2.483292 17 19 tcp 40 ------- 0 18.992 19.1125 0 94077
- 2.484307 17 19 ack 40 ------- 0 17.1224 19.492 2 103525
r 2.485425 17 19 tcp 40 ------- 0 17.1314 19.1103 0 102038
- 2.48644 17 19 ack 40 ------- 0 17.1224 19.492 3 107256
r 2.487559 17 19 ack 40 ------- 0 17.1224 19.492 2 103525
- 2.488573 17 19 tcp 1540 ------- 0 17.1325 19.1114 1 107361
r 2.489692 17 19 ack 40 ------- 0 17.1224 19.492 3 107256
+ 2.55364 17 19 ack 40 ------- 0 17.1225 19.493 14 111301
+ 2.555773 17 19 ack 40 ------- 0 17.1222 19.490 0 111404
+ 2.56004 17 19 ack 40 ------- 0 17.1219 19.487 0 111582
+ 2.562173 17 19 ack 40 ------- 0 17.1218 19.486 0 111673
- 2.570707 17 19 ack 40 ------- 0 17.1225 19.493 14 111301
r 2.571825 17 19 tcp 1540 ------- 0 17.1325 19.1114 1 107361
- 2.57284 17 19 ack 40 ------- 0 17.1222 19.490 0 111404
r 2.573959 17 19 ack 40 ------- 0 17.1225 19.493 14 111301
- 2.574973 17 19 ack 40 ------- 0 17.1219 19.487 0 111582
r 2.576092 17 19 ack 40 ------- 0 17.1222 19.490 0 111404
- 2.577107 17 19 ack 40 ------- 0 17.1218 19.486 0 111673
r 2.578225 17 19 ack 40 ------- 0 17.1219 19.487 0 111582
r 2.580359 17 19 ack 40 ------- 0 17.1218 19.486 0 111673
+ 2.628317 17 19 tcp 40 ------- 0 18.996 19.1129 0 109682
- 2.628317 17 19 tcp 40 ------- 0 18.996 19.1129 0 109682
r 2.631569 17 19 tcp 40 ------- 0 18.996 19.1129 0 109682
+ 2.644307 17 19 ack 40 ------- 0 17.1224 19.492 4 115453
- 2.644307 17 19 ack 40 ------- 0 17.1224 19.492 4 115453
r 2.647559 17 19 ack 40 ------- 0 17.1224 19.492 4 115453
+ 2.72644 17 19 ack 40 ------- 0 17.1236 19.504 1 119575
- 2.72644 17 19 ack 40 ------- 0 17.1236 19.504 1 119575
r 2.729692 17 19 ack 40 ------- 0 17.1236 19.504 1 119575
+ 2.799706 17 19 tcp 40 ------- 0 17.1322 19.1111 0 123173
- 2.799706 17 19 tcp 40 ------- 0 17.1322 19.1111 0 123173
r 2.802958 17 19 tcp 40 ------- 0 17.1322 19.1111 0 123173
+ 2.808573 17 19 ack 40 ------- 0 17.1236 19.504 2 123565
- 2.808573 17 19 ack 40 ------- 0 17.1236 19.504 2 123565
r 2.811825 17 19 ack 40 ------- 0 17.1236 19.504 2 123565
+ 2.81284 17 19 ack 40 ------- 0 17.1223 19.491 0 123753
- 2.81284 17 19 ack 40 ------- 0 17.1223 19.491 0 123753
+ 2.814973 17 19 tcp 1540 ------- 0 17.1330 19.1119 1 123842
+ 2.814973 17 19 tcp 1540 ------- 0 17.1330 19.1119 2 123843
- 2.814973 17 19 tcp 1540 ------- 0 17.1330 19.1119 1 123842
r 2.816092 17 19 ack 40 ------- 0 17.1223 19.491 0 123753
- 2.897107 17 19 tcp 1540 ------- 0 17.1330 19.1119 2 123843
+ 2.897107 17 19 ack 40 ------- 0 17.1211 19.479 2 127819
r 2.898225 17 19 tcp 1540 ------- 0 17.1330 19.1119 1 123842
+ 2.918301 17 19 tcp 40 ------- 0 18.993 19.1126 0 124690
- 2.97924 17 19 ack 40 ------- 0 17.1211 19.479 2 127819
+ 2.97924 17 19 ack 40 ------- 0 17.1225 19.493 14 131784
r 2.980359 17 19 tcp 1540 ------- 0 17.1330 19.1119 2 123843
- 2.981373 17 19 tcp 40 ------- 0 18.993 19.1126 0 124690
r 2.982492 17 19 ack 40 ------- 0 17.1211 19.479 2 127819
- 2.983507 17 19 ack 40 ------- 0 17.1225 19.493 14 131784
r 2.984625 17 19 tcp 40 ------- 0 18.993 19.1126 0 124690
r 2.986759 17 19 ack 40 ------- 0 17.1225 19.493 14 131784
+ 3.061373 17 19 ack 40 ------- 0 17.1225 19.493 14 135967
- 3.061373 17 19 ack 40 ------- 0 17.1225 19.493 14 135967
r 3.064625 17 19 ack 40 ------- 0 17.1225 19.493 14 135967
+ 3.14564 17 19 ack 40 ------- 0 17.1225 19.493 14 140247
- 3.14564 17 19 ack 40 ------- 0 17.1225 19.493 14 140247
r 3.148892 17 19 ack 40 ------- 0 17.1225 19.493 14 140247
+ 3.220893 17 19 tcp 1540 ------- 0 18.998 19.1131 1 137135
- 3.220893 17 19 tcp 1540 ------- 0 18.998 19.1131 1 137135
+ 3.225821 17 19 tcp 1540 ------- 0 18.998 19.1131 2 137136
+ 3.227773 17 19 ack 40 ------- 0 17.1225 19.493 14 144480
- 3.303026 17 19 tcp 1540 ------- 0 18.998 19.1131 2 137136
r 3.304145 17 19 tcp 1540 ------- 0 18.998 19.1131 1 137135
+ 3.309907 17 19 ack 40 ------- 0 17.1225 19.493 14 148641
- 3.38516 17 19 ack 40 ------- 0 17.1225 19.493 14 144480
r 3.386278 17 19 tcp 1540 ------- 0 18.998 19.1131 2 137136
- 3.387293 17 19 ack 40 ------- 0 17.1225 19.493 14 148641
r 3.388412 17 19 ack 40 ------- 0 17.1225 19.493 14 144480
r 3.390545 17 19 ack 40 ------- 0 17.1225 19.493 14 148641
+ 3.39204 17 19 ack 40 ------- 0 17.1225 19.493 14 152899
- 3.39204 17 19 ack 40 ------- 0 17.1225 19.493 14 152899
r 3.395292 17 19 ack 40 ------- 0 17.1225 19.493 14 152899
+ 3.474173 17 19 ack 40 ------- 0 17.1211 19.479 2 157194
- 3.474173 17 19 ack 40 ------- 0 17.1211 19.479 2 157194
r 3.477425 17 19 ack 40 ------- 0 17.1211 19.479 2 157194
+ 3.552093 17 19 ack 40 ------- 0 18.923 19.525 0 157340
- 3.552093 17 19 ack 40 ------- 0 18.923 19.525 0 157340
r 3.555345 17 19 ack 40 ------- 0 18.923 19.525 0 157340
+ 3.557149 17 19 tcp 40 ---A--- 0 18.988 19.1121 0 157663
- 3.557149 17 19 tcp 40 ---A--- 0 18.988 19.1121 0 157663
+ 3.55844 17 19 ack 40 ------- 0 17.1211 19.479 2 161674
- 3.559282 17 19 ack 40 ------- 0 17.1211 19.479 2 161674
r 3.560401 17 19 tcp 40 ---A--- 0 18.988 19.1121 0 157663
r 3.562534 17 19 ack 40 ------- 0 17.1211 19.479 2 161674
+ 3.640573 17 19 ack 40 ------- 0 17.1230 19.498 1 166034
- 3.640573 17 19 ack 40 ------- 0 17.1230 19.498 1 166034
r 3.643825 17 19 ack 40 ------- 0 17.1230 19.498 1 166034
+ 3.722707 17 19 ack 40 ------- 0 17.1230 19.498 2 170330
- 3.722707 17 19 ack 40 ------- 0 17.1230 19.498 2 170330
r 3.725959 17 19 ack 40 ------- 0 17.1230 19.498 2 170330
+ 3.80484 17 19 ack 40 ------- 0 17.1206 19.474 1 174719
- 3.80484 17 19 ack 40 ------- 0 17.1206 19.474 1 174719
r 3.808092 17 19 ack 40 ------- 0 17.1206 19.474 1 174719
+ 3.886973 17 19 ack 40 ------- 0 17.1225 19.493 15 179198
- 3.886973 17 19 ack 40 ------- 0 17.1225 19.493 15 179198
r 3.890225 17 19 ack 40 ------- 0 17.1225 19.493 15 179198
+ 3.969107 17 19 ack 40 ------- 0 17.1225 19.493 16 183682
- 3.969107 17 19 ack 40 ------- 0 17.1225 19.493 16 183682
+ 3.97124 17 19 ack 40 ------- 0 17.1234 19.502 0 183802
- 3.97124 17 19 ack 40 ------- 0 17.1234 19.502 0 183802
r 3.972359 17 19 ack 40 ------- 0 17.1225 19.493 16 183682
+ 3.973373 17 19 tcp 1540 ------- 0 17.1324 19.1113 3 183948
+ 3.973373 17 19 tcp 1540 ------- 0 17.1324 19.1113 4 183949
- 3.973373 17 19 tcp 1540 ------- 0 17.1324 19.1113 3 183948
r 3.974492 17 19 ack 40 ------- 0 17.1234 19.502 0 183802
+ 3.975507 17 19 tcp 1540 ------- 0 17.1324 19.1113 5 184055
+ 3.975507 17 19 tcp 1540 ------- 0 17.1324 19.1113 6 184056
+ 3.997253 17 19 tcp 40 ------- 0 17.1313 19.1102 0 185224
- 4.055507 17 19 tcp 1540 ------- 0 17.1324 19.1113 4 183949
r 4.056625 17 19 tcp 1540 ------- 0 17.1324 19.1113 3 183948
+ 4.059773 17 19 ack 40 ------- 0 17.1224 19.492 4 188316
+ 4.090333 17 19 tcp 1540 ------- 0 18.991 19.1124 1 184221
+ 4.095261 17 19 tcp 1540 ------- 0 18.991 19.1124 2 184222
- 4.13764 17 19 tcp 1540 ------- 0 17.1324 19.1113 5 184055
r 4.138759 17 19 tcp 1540 ------- 0 17.1324 19.1113 4 183949
+ 4.141907 17 19 ack 40 ------- 0 17.1225 19.493 17 192151
- 4.219773 17 19 tcp 1540 ------- 0 17.1324 19.1113 6 184056
r 4.220892 17 19 tcp 1540 ------- 0 17.1324 19.1113 5 184055
+ 4.22404 17 19 ack 40 ------- 0 17.1225 19.493 18 195996
+ 4.259101 17 19 tcp 40 ---A--- 0 18.997 19.1130 0 193427
- 4.301907 17 19 tcp 40 ------- 0 17.1313 19.1102 0 185224
r 4.303025 17 19 tcp 1540 ------- 0 17.1324 19.1113 6 184056
- 4.30404 17 19 ack 40 ------- 0 17.1224 19.492 4 188316
r 4.305159 17 19 tcp 40 ------- 0 17.1313 19.1102 0 185224
- 4.306173 17 19 tcp 1540 ------- 0 18.991 19.1124 1 184221
+ 4.306173 17 19 ack 40 ------- 0 17.1225 19.493 19 199877
r 4.307292 17 19 ack 40 ------- 0 17.1224 19.492 4 188316
+ 4.347627 17 19 tcp 40 ---A--- 0 17.1320 19.1109 0 201902
- 4.388307 17 19 tcp 1540 ------- 0 18.991 19.1124 2 184222
r 4.389425 17 19 tcp 1540 ------- 0 18.991 19.1124 1 184221
+ 4.39684 17 19 ack 40 ------- 0 17.1201 19.469 1 204227
+ 4.398973 17 19 tcp 1540 ------- 0 17.1327 19.1116 1 204315
+ 4.398973 17 19 tcp 1540 ------- 0 17.1327 19.1116 2 204316
+ 4.452447 17 19 tcp 40 ---A--- 0 17.1329 19.1118 0 206857
+ 4.460445 17 19 ack 40 ------- 0 18.933 19.535 0 201102
d 4.460445 17 19 ack 40 ------- 0 18.933 19.535 0 201102
+ 4.460573 17 19 ack 40 ------- 0 18.928 19.530 0 201107
d 4.460573 17 19 ack 40 ------- 0 18.928 19.530 0 201107
- 4.47044 17 19 ack 40 ------- 0 17.1225 19.493 17 192151
r 4.471559 17 19 tcp 1540 ------- 0 18.991 19.1124 2 184222
- 4.472573 17 19 ack 40 ------- 0 17.1225 19.493 18 195996
r 4.473692 17 19 ack 40 ------- 0 17.1225 19.493 17 192151
- 4.474707 17 19 tcp 40 ---A--- 0 18.997 19.1130 0 193427
r 4.475825 17 19 ack 40 ------- 0 17.1225 19.493 18 195996
- 4.47684 17 19 ack 40 ------- 0 17.1225 19.493 19 199877
r 4.477959 17 19 tcp 40 ---A--- 0 18.997 19.1130 0 193427
- 4.478973 17 19 tcp 40 ---A--- 0 17.1320 19.1109 0 201902
r 4.480092 17 19 ack 40 ------- 0 17.1225 19.493 19 199877
- 4.481107 17 19 ack 40 ------- 0 17.1201 19.469 1 204227
r 4.482225 17 19 tcp 40 ---A--- 0 17.1320 19.1109 0 201902
- 4.48324 17 19 tcp 1540 ------- 0 17.1327 19.1116 1 204315
+ 4.48324 17 19 ack 40 ------- 0 17.1205 19.473 6 208300
r 4.484359 17 19 ack 40 ------- 0 17.1201 19.469 1 204227
+ 4.485373 17 19 tcp 1540 ------- 0 17.1316 19.1105 1 208382
+ 4.485373 17 19 tcp 1540 ------- 0 17.1316 19.1105 2 208383
+ 4.487507 17 19 tcp 1540 ------- 0 17.1318 19.1107 3 208486
+ 4.487507 17 19 tcp 1540 ------- 0 17.1318 19.1107 4 208487
+ 4.48964 17 19 tcp 1540 ------- 0 17.1318 19.1107 5 208609
+ 4.48964 17 19 tcp 1540 ------- 0 17.1318 19.1107 6 208610
+ 4.491773 17 19 ack 40 ------- 0 17.1199 19.467 0 208717
d 4.491773 17 19 ack 40 ------- 0 17.1199 19.467 0 208717
+ 4.493907 17 19 tcp 1540 ------- 0 17.1326 19.1115 3 208827
d 4.493907 17 19 tcp 1540 ------- 0 17.1326 19.1115 3 208827
+ 4.493907 17 19 tcp 1540 ------- 0 17.1326 19.1115 4 208828
d 4.493907 17 19 tcp 1540 ------- 0 17.1326 19.1115 4 208828
+ 4.49604 17 19 tcp 1540 ------- 0 17.1326 19.1115 5 208906
d 4.49604 17 19 tcp 1540 ------- 0 17.1326 19.1115 5 208906
+ 4.49604 17 19 tcp 1540 ------- 0 17.1326 19.1115 6 208907
d 4.49604 17 19 tcp 1540 ------- 0 17.1326 19.1115 6 208907
+ 4.516094 17 19 rtProtoDV 26 ------- 0 17.1417 19.1297 -1 209517
d 4.516094 17 19 rtProtoDV 26 ------- 0 17.1417 19.1297 -1 209517
+ 4.54232 17 19 tcp 40 ---A--- 0 18.994 19.1127 0 207111
d 4.54232 17 19 tcp 40 ---A--- 0 18.994 19.1127 0 207111
- 4.565373 17 19 tcp 1540 ------- 0 17.1327 19.1116 2 204316
r 4.566492 17 19 tcp 1540 ------- 0 17.1327 19.1116 1 204315
+ 4.578173 17 19 ack 40 ------- 0 17.1229 19.497 1 211010
- 4.647507 17 19 tcp 40 ---A--- 0 17.1329 19.1118 0 206857
r 4.648625 17 19 tcp 1540 ------- 0 17.1327 19.1116 2 204316
- 4.64964 17 19 ack 40 ------- 0 17.1205 19.473 6 208300
r 4.650759 17 19 tcp 40 ---A--- 0 17.1329 19.1118 0 206857
- 4.651773 17 19 tcp 1540 ------- 0 17.1316 19.1105 1 208382
r 4.652892 17 19 ack 40 ------- 0 17.1205 19.473 6 208300
+ 4.66244 17 19 ack 40 ------- 0 17.1225 19.493 19 212661
- 4.733907 17 19 tcp 1540 ------- 0 17.1316 19.1105 2 208383
r 4.735025 17 19 tcp 1540 ------- 0 17.1316 19.1105 1 208382
+ 4.744573 17 19 ack 40 ------- 0 17.1222 19.490 1 214029
- 4.81604 17 19 tcp 1540 ------- 0 17.1318 19.1107 3 208486
r 4.817159 17 19 tcp 1540 ------- 0 17.1316 19.1105 2 208383
+ 4.826707 17 19 ack 40 ------- 0 17.1222 19.490 2 215011
+ 4.83796 17 19 ack 40 ------- 0 18.937 19.539 0 215105
- 4.898173 17 19 tcp 1540 ------- 0 17.1318 19.1107 4 208487
r 4.899292 17 19 tcp 1540 ------- 0 17.1318 19.1107 3 208486
+ 4.910973 17 19 ack 40 ------- 0 17.1224 19.492 4 215899
- 4.980307 17 19 tcp 1540 ------- 0 17.1318 19.1107 5 208609
r 4.981425 17 19 tcp 1540 ------- 0 17.1318 19.1107 4 208487
+ 4.993107 17 19 ack 40 ------- 0 17.1236 19.504 2 216642
