+ 0.004165 5 20 rtProtoDV 26 ------- 0 5.1623 20.1475 -1 60
- 0.004165 5 20 rtProtoDV 26 ------- 0 5.1623 20.1475 -1 60
+ 0.007491 5 20 rtProtoDV 26 ------- 0 5.1623 20.1475 -1 183
- 0.007491 5 20 rtProtoDV 26 ------- 0 5.1623 20.1475 -1 183
+ 0.008323 5 20 rtProtoDV 26 ------- 0 5.1623 20.1475 -1 221
- 0.008323 5 20 rtProtoDV 26 ------- 0 5.1623 20.1475 -1 221
+ 0.009936 5 20 rtProtoDV 26 ------- 0 5.1623 20.1475 -1 288
- 0.009936 5 20 rtProtoDV 26 ------- 0 5.1623 20.1475 -1 288
+ 0.010416 5 20 rtProtoDV 26 ------- 0 5.1623 20.1475 -1 312
- 0.010416 5 20 rtProtoDV 26 ------- 0 5.1623 20.1475 -1 312
r 0.012949 5 20 rtProtoDV 26 ------- 0 5.1623 20.1475 -1 60
+ 0.013638 5 20 rtProtoDV 26 ------- 0 5.1623 20.1475 -1 501
- 0.013638 5 20 rtProtoDV 26 ------- 0 5.1623 20.1475 -1 501
+ 0.013838 5 20 rtProtoDV 26 ------- 0 5.1623 20.1475 -1 514
- 0.013838 5 20 rtProtoDV 26 ------- 0 5.1623 20.1475 -1 514
+ 0.014907 5 20 rtProtoDV 26 ------- 0 5.1623 20.1475 -1 560
- 0.014907 5 20 rtProtoDV 26 ------- 0 5.1623 20.1475 -1 560
+ 0.016103 5 20 rtProtoDV 26 ------- 0 5.1623 20.1475 -1 596
- 0.016103 5 20 rtProtoDV 26 ------- 0 5.1623 20.1475 -1 596
r 0.016275 5 20 rtProtoDV 26 ------- 0 5.1623 20.1475 -1 183
r 0.017108 5 20 rtProtoDV 26 ------- 0 5.1623 20.1475 -1 221
r 0.01872 5 20 rtProtoDV 26 ------- 0 5.1623 20.1475 -1 288
r 0.0192 5 20 rtProtoDV 26 ------- 0 5.1623 20.1475 -1 312
+ 0.021041 5 20 rtProtoDV 26 ------- 0 5.1623 20.1475 -1 776
- 0.021041 5 20 rtProtoDV 26 ------- 0 5.1623 20.1475 -1 776
r 0.022422 5 20 rtProtoDV 26 ------- 0 5.1623 20.1475 -1 501
r 0.022622 5 20 rtProtoDV 26 ------- 0 5.1623 20.1475 -1 514
r 0.023692 5 20 rtProtoDV 26 ------- 0 5.1623 20.1475 -1 560
r 0.024887 5 20 rtProtoDV 26 ------- 0 5.1623 20.1475 -1 596
r 0.029826 5 20 rtProtoDV 26 ------- 0 5.1623 20.1475 -1 776
+ 0.039869 5 20 rtProtoDV 26 ------- 0 5.1623 20.1475 -1 1225
- 0.039869 5 20 rtProtoDV 26 ------- 0 5.1623 20.1475 -1 1225
+ 0.048492 5 20 tcp 40 ------- 0 22.570 20.1331 0 1002
- 0.048492 5 20 tcp 40 ------- 0 22.570 20.1331 0 1002
r 0.048654 5 20 rtProtoDV 26 ------- 0 5.1623 20.1475 -1 1225
+ 0.049096 5 20 tcp 40 ------- 0 5.1521 20.838 0 1459
- 0.049096 5 20 tcp 40 ------- 0 5.1521 20.838 0 1459
+ 0.056104 5 20 tcp 40 ------- 0 0.1301 20.674 0 1513
- 0.056104 5 20 tcp 40 ------- 0 0.1301 20.674 0 1513
+ 0.056448 5 20 tcp 40 ------- 0 3.1369 20.804 0 1465
- 0.056448 5 20 tcp 40 ------- 0 3.1369 20.804 0 1465
r 0.057321 5 20 tcp 40 ------- 0 22.570 20.1331 0 1002
r 0.057925 5 20 tcp 40 ------- 0 5.1521 20.838 0 1459
r 0.064933 5 20 tcp 40 ------- 0 0.1301 20.674 0 1513
r 0.065277 5 20 tcp 40 ------- 0 3.1369 20.804 0 1465
+ 0.066754 5 20 tcp 1540 ------- 0 5.1521 20.838 1 1933
- 0.066754 5 20 tcp 1540 ------- 0 5.1521 20.838 1 1933
+ 0.066754 5 20 tcp 1540 ------- 0 5.1521 20.838 2 1934
- 0.071682 5 20 tcp 1540 ------- 0 5.1521 20.838 2 1934
+ 0.079971 5 20 tcp 40 ------- 0 4.1221 20.815 0 2308
- 0.079971 5 20 tcp 40 ------- 0 4.1221 20.815 0 2308
r 0.080383 5 20 tcp 1540 ------- 0 5.1521 20.838 1 1933
+ 0.081588 5 20 tcp 40 ------- 0 0.1324 20.697 0 2305
- 0.081588 5 20 tcp 40 ------- 0 0.1324 20.697 0 2305
r 0.085311 5 20 tcp 1540 ------- 0 5.1521 20.838 2 1934
r 0.088801 5 20 tcp 40 ------- 0 4.1221 20.815 0 2308
+ 0.089212 5 20 tcp 1540 ------- 0 5.1521 20.838 3 2705
- 0.089212 5 20 tcp 1540 ------- 0 5.1521 20.838 3 2705
+ 0.089212 5 20 tcp 1540 ------- 0 5.1521 20.838 4 2706
r 0.090417 5 20 tcp 40 ------- 0 0.1324 20.697 0 2305
+ 0.09414 5 20 tcp 1540 ------- 0 5.1521 20.838 5 2848
+ 0.09414 5 20 tcp 1540 ------- 0 5.1521 20.838 6 2849
- 0.09414 5 20 tcp 1540 ------- 0 5.1521 20.838 4 2706
- 0.099068 5 20 tcp 1540 ------- 0 5.1521 20.838 5 2848
r 0.102842 5 20 tcp 1540 ------- 0 5.1521 20.838 3 2705
+ 0.103075 5 20 tcp 1540 ------- 0 4.1221 20.815 1 3016
- 0.103996 5 20 tcp 1540 ------- 0 5.1521 20.838 6 2849
+ 0.104307 5 20 tcp 1540 ------- 0 4.1221 20.815 2 3017
+ 0.104339 5 20 tcp 40 ------- 0 17.1337 20.1185 0 2775
r 0.10777 5 20 tcp 1540 ------- 0 5.1521 20.838 4 2706
- 0.108924 5 20 tcp 1540 ------- 0 4.1221 20.815 1 3016
+ 0.110723 5 20 tcp 40 ------- 0 4.1234 20.828 0 3268
+ 0.111671 5 20 tcp 1540 ------- 0 5.1521 20.838 7 3440
+ 0.111671 5 20 tcp 1540 ------- 0 5.1521 20.838 8 3441
r 0.112698 5 20 tcp 1540 ------- 0 5.1521 20.838 5 2848
- 0.113852 5 20 tcp 1540 ------- 0 4.1221 20.815 2 3017
+ 0.116599 5 20 tcp 1540 ------- 0 5.1521 20.838 9 3566
+ 0.116599 5 20 tcp 1540 ------- 0 5.1521 20.838 10 3567
r 0.117626 5 20 tcp 1540 ------- 0 5.1521 20.838 6 2849
- 0.11878 5 20 tcp 40 ------- 0 17.1337 20.1185 0 2775
- 0.118908 5 20 tcp 40 ------- 0 4.1234 20.828 0 3268
- 0.119036 5 20 tcp 1540 ------- 0 5.1521 20.838 7 3440
+ 0.121527 5 20 tcp 1540 ------- 0 5.1521 20.838 11 3722
+ 0.121527 5 20 tcp 1540 ------- 0 5.1521 20.838 12 3723
r 0.122554 5 20 tcp 1540 ------- 0 4.1221 20.815 1 3016
- 0.123964 5 20 tcp 1540 ------- 0 5.1521 20.838 8 3441
+ 0.126455 5 20 tcp 1540 ------- 0 5.1521 20.838 13 3899
+ 0.126455 5 20 tcp 1540 ------- 0 5.1521 20.838 14 3900
r 0.127482 5 20 tcp 1540 ------- 0 4.1221 20.815 2 3017
r 0.12761 5 20 tcp 40 ------- 0 17.1337 20.1185 0 2775
r 0.127738 5 20 tcp 40 ------- 0 4.1234 20.828 0 3268
+ 0.128163 5 20 tcp 1540 ------- 0 0.1301 20.674 1 3596
- 0.128892 5 20 tcp 1540 ------- 0 5.1521 20.838 9 3566
+ 0.130627 5 20 tcp 1540 ------- 0 0.1301 20.674 2 3597
r 0.132666 5 20 tcp 1540 ------- 0 5.1521 20.838 7 3440
- 0.13382 5 20 tcp 1540 ------- 0 5.1521 20.838 10 3567
+ 0.135747 5 20 tcp 1540 ------- 0 0.1324 20.697 1 3855
r 0.137594 5 20 tcp 1540 ------- 0 5.1521 20.838 8 3441
+ 0.138243 5 20 tcp 1540 ------- 0 0.1324 20.697 2 3856
- 0.138748 5 20 tcp 1540 ------- 0 5.1521 20.838 11 3722
+ 0.141495 5 20 tcp 1540 ------- 0 5.1521 20.838 15 4366
+ 0.141495 5 20 tcp 1540 ------- 0 5.1521 20.838 16 4367
+ 0.141939 5 20 tcp 1540 ------- 0 4.1221 20.815 3 4150
d 0.141939 5 20 tcp 1540 ------- 0 4.1221 20.815 3 4150
r 0.142522 5 20 tcp 1540 ------- 0 5.1521 20.838 9 3566
+ 0.143171 5 20 tcp 1540 ------- 0 4.1221 20.815 4 4151
d 0.143171 5 20 tcp 1540 ------- 0 4.1221 20.815 4 4151
- 0.143676 5 20 tcp 1540 ------- 0 5.1521 20.838 12 3723
+ 0.146423 5 20 tcp 1540 ------- 0 5.1521 20.838 17 4542
+ 0.146423 5 20 tcp 1540 ------- 0 5.1521 20.838 18 4543
d 0.146423 5 20 tcp 1540 ------- 0 5.1521 20.838 18 4543
+ 0.147027 5 20 tcp 1540 ------- 0 4.1221 20.815 5 4309
d 0.147027 5 20 tcp 1540 ------- 0 4.1221 20.815 5 4309
r 0.14745 5 20 tcp 1540 ------- 0 5.1521 20.838 10 3567
- 0.148604 5 20 tcp 1540 ------- 0 5.1521 20.838 13 3899
+ 0.148743 5 20 tcp 40 ------- 0 21.454 20.1283 0 3176
+ 0.151351 5 20 tcp 1540 ------- 0 5.1521 20.838 19 4718
d 0.151351 5 20 tcp 1540 ------- 0 5.1521 20.838 19 4718
+ 0.151351 5 20 tcp 1540 ------- 0 5.1521 20.838 20 4719
d 0.151351 5 20 tcp 1540 ------- 0 5.1521 20.838 20 4719
r 0.152378 5 20 tcp 1540 ------- 0 5.1521 20.838 11 3722
- 0.153532 5 20 tcp 1540 ------- 0 5.1521 20.838 14 3900
+ 0.156279 5 20 tcp 1540 ------- 0 5.1521 20.838 21 4884
+ 0.156279 5 20 tcp 1540 ------- 0 5.1521 20.838 22 4885
d 0.156279 5 20 tcp 1540 ------- 0 5.1521 20.838 22 4885
r 0.157306 5 20 tcp 1540 ------- 0 5.1521 20.838 12 3723
- 0.15846 5 20 tcp 1540 ------- 0 0.1301 20.674 1 3596
+ 0.161207 5 20 tcp 1540 ------- 0 5.1521 20.838 23 5076
+ 0.161207 5 20 tcp 1540 ------- 0 5.1521 20.838 24 5077
d 0.161207 5 20 tcp 1540 ------- 0 5.1521 20.838 24 5077
r 0.162234 5 20 tcp 1540 ------- 0 5.1521 20.838 13 3899
- 0.163388 5 20 tcp 1540 ------- 0 0.1301 20.674 2 3597
+ 0.166135 5 20 tcp 1540 ------- 0 5.1521 20.838 25 5272
+ 0.166135 5 20 tcp 1540 ------- 0 5.1521 20.838 26 5273
d 0.166135 5 20 tcp 1540 ------- 0 5.1521 20.838 26 5273
r 0.167162 5 20 tcp 1540 ------- 0 5.1521 20.838 14 3900
- 0.168316 5 20 tcp 1540 ------- 0 0.1324 20.697 1 3855
+ 0.171063 5 20 tcp 1540 ------- 0 5.1521 20.838 27 5468
+ 0.171063 5 20 tcp 1540 ------- 0 5.1521 20.838 28 5469
d 0.171063 5 20 tcp 1540 ------- 0 5.1521 20.838 28 5469
+ 0.171267 5 20 ack 40 ------- 0 2.631 20.154 0 3866
d 0.171267 5 20 ack 40 ------- 0 2.631 20.154 0 3866
r 0.17209 5 20 tcp 1540 ------- 0 0.1301 20.674 1 3596
- 0.173244 5 20 tcp 1540 ------- 0 0.1324 20.697 2 3856
+ 0.175991 5 20 tcp 1540 ------- 0 5.1521 20.838 29 5685
+ 0.175991 5 20 tcp 1540 ------- 0 5.1521 20.838 30 5686
d 0.175991 5 20 tcp 1540 ------- 0 5.1521 20.838 30 5686
r 0.177018 5 20 tcp 1540 ------- 0 0.1301 20.674 2 3597
- 0.178172 5 20 tcp 1540 ------- 0 5.1521 20.838 15 4366
r 0.181946 5 20 tcp 1540 ------- 0 0.1324 20.697 1 3855
- 0.1831 5 20 tcp 1540 ------- 0 5.1521 20.838 16 4367
+ 0.184006 5 20 tcp 40 ------- 0 5.1564 20.881 0 5932
r 0.186874 5 20 tcp 1540 ------- 0 0.1324 20.697 2 3856
- 0.188028 5 20 tcp 1540 ------- 0 5.1521 20.838 17 4542
r 0.191802 5 20 tcp 1540 ------- 0 5.1521 20.838 15 4366
- 0.192956 5 20 tcp 40 ------- 0 21.454 20.1283 0 3176
- 0.193084 5 20 tcp 1540 ------- 0 5.1521 20.838 21 4884
r 0.19673 5 20 tcp 1540 ------- 0 5.1521 20.838 16 4367
- 0.198012 5 20 tcp 1540 ------- 0 5.1521 20.838 23 5076
+ 0.200631 5 20 tcp 1540 ------- 0 5.1521 20.838 31 6535
+ 0.200631 5 20 tcp 1540 ------- 0 5.1521 20.838 32 6536
r 0.201658 5 20 tcp 1540 ------- 0 5.1521 20.838 17 4542
r 0.201786 5 20 tcp 40 ------- 0 21.454 20.1283 0 3176
- 0.20294 5 20 tcp 1540 ------- 0 5.1521 20.838 25 5272
+ 0.205559 5 20 tcp 1540 ------- 0 5.1521 20.838 33 6718
+ 0.205559 5 20 tcp 1540 ------- 0 5.1521 20.838 34 6719
r 0.206714 5 20 tcp 1540 ------- 0 5.1521 20.838 21 4884
- 0.207868 5 20 tcp 1540 ------- 0 5.1521 20.838 27 5468
+ 0.210487 5 20 tcp 1540 ------- 0 5.1521 20.838 35 6865
+ 0.210487 5 20 tcp 1540 ------- 0 5.1521 20.838 36 6866
r 0.211642 5 20 tcp 1540 ------- 0 5.1521 20.838 23 5076
+ 0.212163 5 20 tcp 1540 ------- 0 17.1337 20.1185 1 5784
- 0.212796 5 20 tcp 1540 ------- 0 5.1521 20.838 29 5685
+ 0.215543 5 20 tcp 1540 ------- 0 5.1521 20.838 37 7072
r 0.21657 5 20 tcp 1540 ------- 0 5.1521 20.838 25 5272
+ 0.217251 5 20 tcp 1540 ------- 0 17.1337 20.1185 2 5785
d 0.217251 5 20 tcp 1540 ------- 0 17.1337 20.1185 2 5785
- 0.217724 5 20 tcp 40 ------- 0 5.1564 20.881 0 5932
- 0.217852 5 20 tcp 1540 ------- 0 5.1521 20.838 31 6535
r 0.221498 5 20 tcp 1540 ------- 0 5.1521 20.838 27 5468
- 0.22278 5 20 tcp 1540 ------- 0 5.1521 20.838 32 6536
+ 0.225399 5 20 tcp 1540 ---A--- 0 5.1521 20.838 18 7406
+ 0.226183 5 20 tcp 40 ------- 0 0.1312 20.685 0 7224
r 0.226426 5 20 tcp 1540 ------- 0 5.1521 20.838 29 5685
r 0.226554 5 20 tcp 40 ------- 0 5.1564 20.881 0 5932
- 0.227708 5 20 tcp 1540 ------- 0 5.1521 20.838 33 6718
r 0.231482 5 20 tcp 1540 ------- 0 5.1521 20.838 31 6535
- 0.232636 5 20 tcp 1540 ------- 0 5.1521 20.838 34 6719
+ 0.235383 5 20 tcp 1540 ------- 0 5.1564 20.881 1 7772
+ 0.235383 5 20 tcp 1540 ------- 0 5.1564 20.881 2 7773
r 0.23641 5 20 tcp 1540 ------- 0 5.1521 20.838 32 6536
- 0.237564 5 20 tcp 1540 ------- 0 5.1521 20.838 35 6865
+ 0.238899 5 20 tcp 1540 ------- 0 0.1324 20.697 3 7581
r 0.241338 5 20 tcp 1540 ------- 0 5.1521 20.838 33 6718
+ 0.241363 5 20 tcp 1540 ------- 0 0.1324 20.697 4 7582
- 0.242492 5 20 tcp 1540 ------- 0 5.1521 20.838 36 6866
+ 0.244439 5 20 tcp 40 ------- 0 5.1567 20.884 0 8095
+ 0.24515 5 20 ack 40 ------- 0 22.994 20.1386 0 2220
d 0.24515 5 20 ack 40 ------- 0 22.994 20.1386 0 2220
r 0.246266 5 20 tcp 1540 ------- 0 5.1521 20.838 34 6719
- 0.24742 5 20 tcp 1540 ------- 0 17.1337 20.1185 1 5784
+ 0.247587 5 20 tcp 1540 ------- 0 0.1324 20.697 5 7761
+ 0.250051 5 20 tcp 1540 ------- 0 0.1324 20.697 6 7762
d 0.250051 5 20 tcp 1540 ------- 0 0.1324 20.697 6 7762
r 0.251194 5 20 tcp 1540 ------- 0 5.1521 20.838 35 6865
- 0.252348 5 20 tcp 1540 ------- 0 5.1521 20.838 37 7072
+ 0.253044 5 20 tcp 40 ------- 0 3.1355 20.790 0 8140
r 0.256122 5 20 tcp 1540 ------- 0 5.1521 20.838 36 6866
- 0.257276 5 20 tcp 1540 ---A--- 0 5.1521 20.838 18 7406
r 0.26105 5 20 tcp 1540 ------- 0 17.1337 20.1185 1 5784
- 0.262204 5 20 tcp 40 ------- 0 0.1312 20.685 0 7224
- 0.262332 5 20 tcp 1540 ------- 0 5.1564 20.881 1 7772
r 0.265978 5 20 tcp 1540 ------- 0 5.1521 20.838 37 7072
- 0.26726 5 20 tcp 1540 ------- 0 5.1564 20.881 2 7773
r 0.270906 5 20 tcp 1540 ---A--- 0 5.1521 20.838 18 7406
r 0.271034 5 20 tcp 40 ------- 0 0.1312 20.685 0 7224
- 0.272188 5 20 tcp 1540 ------- 0 0.1324 20.697 3 7581
+ 0.272515 5 20 tcp 40 ------- 0 19.1209 20.1218 0 8685
r 0.275962 5 20 tcp 1540 ------- 0 5.1564 20.881 1 7772
- 0.277116 5 20 tcp 1540 ------- 0 0.1324 20.697 4 7582
+ 0.279735 5 20 tcp 1540 ------- 0 5.1521 20.838 19 9483
+ 0.279735 5 20 tcp 1540 ------- 0 5.1521 20.838 20 9484
r 0.28089 5 20 tcp 1540 ------- 0 5.1564 20.881 2 7773
- 0.282044 5 20 tcp 40 ------- 0 5.1567 20.884 0 8095
- 0.282172 5 20 tcp 1540 ------- 0 0.1324 20.697 5 7761
+ 0.283709 5 20 tcp 40 ------- 0 0.1305 20.678 0 9419
+ 0.284791 5 20 tcp 1540 ------- 0 5.1564 20.881 3 9683
+ 0.284791 5 20 tcp 1540 ------- 0 5.1564 20.881 4 9684
r 0.285818 5 20 tcp 1540 ------- 0 0.1324 20.697 3 7581
- 0.2871 5 20 tcp 40 ------- 0 3.1355 20.790 0 8140
- 0.287228 5 20 tcp 40 ------- 0 19.1209 20.1218 0 8685
- 0.287356 5 20 tcp 1540 ------- 0 5.1521 20.838 19 9483
+ 0.287786 5 20 tcp 40 ------- 0 5.1538 20.855 0 9787
+ 0.289619 5 20 tcp 1540 ---A--- 0 3.1369 20.804 1 9536
+ 0.289719 5 20 tcp 1540 ------- 0 5.1564 20.881 5 9846
+ 0.289719 5 20 tcp 1540 ------- 0 5.1564 20.881 6 9847
r 0.290746 5 20 tcp 1540 ------- 0 0.1324 20.697 4 7582
r 0.290874 5 20 tcp 40 ------- 0 5.1567 20.884 0 8095
- 0.292284 5 20 tcp 1540 ------- 0 5.1521 20.838 20 9484
r 0.295802 5 20 tcp 1540 ------- 0 0.1324 20.697 5 7761
r 0.29593 5 20 tcp 40 ------- 0 3.1355 20.790 0 8140
r 0.296058 5 20 tcp 40 ------- 0 19.1209 20.1218 0 8685
- 0.297212 5 20 tcp 40 ------- 0 0.1305 20.678 0 9419
- 0.29734 5 20 tcp 1540 ------- 0 5.1564 20.881 3 9683
+ 0.299703 5 20 tcp 1540 ------- 0 5.1567 20.884 1 10272
+ 0.299703 5 20 tcp 1540 ------- 0 5.1567 20.884 2 10273
r 0.300986 5 20 tcp 1540 ------- 0 5.1521 20.838 19 9483
- 0.302268 5 20 tcp 1540 ------- 0 5.1564 20.881 4 9684
r 0.305914 5 20 tcp 1540 ------- 0 5.1521 20.838 20 9484
r 0.306042 5 20 tcp 40 ------- 0 0.1305 20.678 0 9419
- 0.307196 5 20 tcp 40 ------- 0 5.1538 20.855 0 9787
- 0.307324 5 20 tcp 1540 ---A--- 0 3.1369 20.804 1 9536
+ 0.309815 5 20 tcp 1540 ------- 0 5.1521 20.838 21 10689
+ 0.309815 5 20 tcp 1540 ------- 0 5.1521 20.838 22 10690
r 0.31097 5 20 tcp 1540 ------- 0 5.1564 20.881 3 9683
- 0.312252 5 20 tcp 1540 ------- 0 5.1564 20.881 5 9846
+ 0.312963 5 20 tcp 1540 ------- 0 0.1312 20.685 1 10436
+ 0.314743 5 20 tcp 1540 ------- 0 5.1521 20.838 23 10892
+ 0.314743 5 20 tcp 1540 ------- 0 5.1521 20.838 24 10893
+ 0.314743 5 20 tcp 1540 ------- 0 5.1521 20.838 25 10894
+ 0.315427 5 20 tcp 1540 ------- 0 0.1312 20.685 2 10437
d 0.315427 5 20 tcp 1540 ------- 0 0.1312 20.685 2 10437
r 0.315898 5 20 tcp 1540 ------- 0 5.1564 20.881 4 9684
r 0.316026 5 20 tcp 40 ------- 0 5.1538 20.855 0 9787
- 0.31718 5 20 tcp 1540 ------- 0 5.1564 20.881 6 9847
+ 0.319799 5 20 tcp 1540 ------- 0 5.1564 20.881 7 11091
+ 0.319799 5 20 tcp 1540 ------- 0 5.1564 20.881 8 11092
d 0.319799 5 20 tcp 1540 ------- 0 5.1564 20.881 8 11092
r 0.320954 5 20 tcp 1540 ---A--- 0 3.1369 20.804 1 9536
- 0.322108 5 20 tcp 1540 ------- 0 5.1567 20.884 1 10272
+ 0.324727 5 20 tcp 1540 ------- 0 5.1564 20.881 9 11300
+ 0.324727 5 20 tcp 1540 ------- 0 5.1564 20.881 10 11301
d 0.324727 5 20 tcp 1540 ------- 0 5.1564 20.881 10 11301
+ 0.324855 5 20 tcp 1540 ------- 0 5.1538 20.855 1 11303
d 0.324855 5 20 tcp 1540 ------- 0 5.1538 20.855 1 11303
+ 0.324855 5 20 tcp 1540 ------- 0 5.1538 20.855 2 11304
d 0.324855 5 20 tcp 1540 ------- 0 5.1538 20.855 2 11304
r 0.325882 5 20 tcp 1540 ------- 0 5.1564 20.881 5 9846
- 0.327036 5 20 tcp 1540 ------- 0 5.1567 20.884 2 10273
r 0.33081 5 20 tcp 1540 ------- 0 5.1564 20.881 6 9847
- 0.331964 5 20 tcp 1540 ------- 0 5.1521 20.838 21 10689
+ 0.334711 5 20 tcp 1540 ------- 0 5.1564 20.881 11 11702
+ 0.334711 5 20 tcp 1540 ------- 0 5.1564 20.881 12 11703
r 0.335738 5 20 tcp 1540 ------- 0 5.1567 20.884 1 10272
- 0.336892 5 20 tcp 1540 ------- 0 5.1521 20.838 22 10690
+ 0.337923 5 20 tcp 1540 ------- 0 0.1305 20.678 1 11077
+ 0.339639 5 20 tcp 1540 ------- 0 5.1564 20.881 13 11899
d 0.339639 5 20 tcp 1540 ------- 0 5.1564 20.881 13 11899
+ 0.339639 5 20 tcp 1540 ------- 0 5.1564 20.881 14 11900
d 0.339639 5 20 tcp 1540 ------- 0 5.1564 20.881 14 11900
r 0.340666 5 20 tcp 1540 ------- 0 5.1567 20.884 2 10273
- 0.34182 5 20 tcp 1540 ------- 0 0.1312 20.685 1 10436
+ 0.344567 5 20 tcp 1540 ------- 0 5.1567 20.884 3 12123
+ 0.344567 5 20 tcp 1540 ------- 0 5.1567 20.884 4 12124
d 0.344567 5 20 tcp 1540 ------- 0 5.1567 20.884 4 12124
r 0.345594 5 20 tcp 1540 ------- 0 5.1521 20.838 21 10689
- 0.346748 5 20 tcp 1540 ------- 0 5.1521 20.838 23 10892
+ 0.347811 5 20 tcp 1540 ---A--- 0 4.1221 20.815 3 11905
+ 0.349043 5 20 tcp 1540 ---A--- 0 4.1234 20.828 1 11909
d 0.349043 5 20 tcp 1540 ---A--- 0 4.1234 20.828 1 11909
+ 0.349495 5 20 tcp 1540 ------- 0 5.1567 20.884 5 12299
d 0.349495 5 20 tcp 1540 ------- 0 5.1567 20.884 5 12299
+ 0.349495 5 20 tcp 1540 ------- 0 5.1567 20.884 6 12300
d 0.349495 5 20 tcp 1540 ------- 0 5.1567 20.884 6 12300
+ 0.350371 5 20 tcp 40 ------- 0 2.1197 20.755 0 10304
d 0.350371 5 20 tcp 40 ------- 0 2.1197 20.755 0 10304
r 0.350522 5 20 tcp 1540 ------- 0 5.1521 20.838 22 10690
- 0.351676 5 20 tcp 1540 ------- 0 5.1521 20.838 24 10893
+ 0.354423 5 20 tcp 1540 ------- 0 5.1521 20.838 26 12490
r 0.35545 5 20 tcp 1540 ------- 0 0.1312 20.685 1 10436
- 0.356604 5 20 tcp 1540 ------- 0 5.1521 20.838 25 10894
+ 0.357888 5 20 tcp 1540 ------- 0 3.1355 20.790 1 12303
+ 0.35912 5 20 tcp 1540 ------- 0 3.1355 20.790 2 12304
d 0.35912 5 20 tcp 1540 ------- 0 3.1355 20.790 2 12304
+ 0.359351 5 20 tcp 1540 ------- 0 5.1521 20.838 27 12671
d 0.359351 5 20 tcp 1540 ------- 0 5.1521 20.838 27 12671
+ 0.359351 5 20 tcp 1540 ------- 0 5.1521 20.838 28 12672
d 0.359351 5 20 tcp 1540 ------- 0 5.1521 20.838 28 12672
r 0.360378 5 20 tcp 1540 ------- 0 5.1521 20.838 23 10892
- 0.361532 5 20 tcp 1540 ------- 0 5.1564 20.881 7 11091
+ 0.363172 5 20 tcp 40 ------- 0 5.1531 20.848 0 12835
r 0.365306 5 20 tcp 1540 ------- 0 5.1521 20.838 24 10893
- 0.36646 5 20 tcp 1540 ------- 0 5.1564 20.881 9 11300
+ 0.369207 5 20 tcp 1540 ------- 0 5.1521 20.838 29 13051
r 0.370234 5 20 tcp 1540 ------- 0 5.1521 20.838 25 10894
- 0.371388 5 20 tcp 1540 ------- 0 5.1564 20.881 11 11702
+ 0.374135 5 20 tcp 1540 ------- 0 5.1521 20.838 30 13250
+ 0.374135 5 20 tcp 1540 ------- 0 5.1521 20.838 31 13251
d 0.374135 5 20 tcp 1540 ------- 0 5.1521 20.838 31 13251
r 0.375162 5 20 tcp 1540 ------- 0 5.1564 20.881 7 11091
- 0.376316 5 20 tcp 1540 ------- 0 5.1564 20.881 12 11703
+ 0.379063 5 20 tcp 1540 ------- 0 5.1521 20.838 32 13464
r 0.38009 5 20 tcp 1540 ------- 0 5.1564 20.881 9 11300
- 0.381244 5 20 tcp 1540 ------- 0 0.1305 20.678 1 11077
+ 0.383991 5 20 tcp 1540 ------- 0 5.1564 20.881 15 13647
+ 0.383991 5 20 tcp 1540 ------- 0 5.1564 20.881 16 13648
d 0.383991 5 20 tcp 1540 ------- 0 5.1564 20.881 16 13648
r 0.385018 5 20 tcp 1540 ------- 0 5.1564 20.881 11 11702
- 0.386172 5 20 tcp 1540 ------- 0 5.1567 20.884 3 12123
+ 0.386448 5 20 tcp 1540 ------- 0 3.1369 20.804 2 13151
+ 0.38768 5 20 tcp 1540 ------- 0 3.1369 20.804 3 13152
d 0.38768 5 20 tcp 1540 ------- 0 3.1369 20.804 3 13152
+ 0.388919 5 20 tcp 1540 ------- 0 5.1564 20.881 17 13868
d 0.388919 5 20 tcp 1540 ------- 0 5.1564 20.881 17 13868
r 0.389946 5 20 tcp 1540 ------- 0 5.1564 20.881 12 11703
+ 0.390528 5 20 tcp 40 ------- 0 21.469 20.1298 0 8155
d 0.390528 5 20 tcp 40 ------- 0 21.469 20.1298 0 8155
- 0.3911 5 20 tcp 1540 ---A--- 0 4.1221 20.815 3 11905
+ 0.393847 5 20 tcp 1540 ------- 0 5.1564 20.881 18 14101
r 0.394874 5 20 tcp 1540 ------- 0 0.1305 20.678 1 11077
- 0.396028 5 20 tcp 1540 ------- 0 5.1521 20.838 26 12490
+ 0.398775 5 20 tcp 1540 ---A--- 0 5.1564 20.881 8 14273
+ 0.399578 5 20 rtProtoDV 26 ------- 0 5.1623 20.1475 -1 14319
d 0.399578 5 20 rtProtoDV 26 ------- 0 5.1623 20.1475 -1 14319
r 0.399802 5 20 tcp 1540 ------- 0 5.1567 20.884 3 12123
+ 0.400051 5 20 tcp 1540 ------- 0 0.1312 20.685 3 13776
d 0.400051 5 20 tcp 1540 ------- 0 0.1312 20.685 3 13776
- 0.400956 5 20 tcp 1540 ------- 0 3.1355 20.790 1 12303
+ 0.402515 5 20 tcp 1540 ------- 0 0.1312 20.685 4 13777
r 0.40473 5 20 tcp 1540 ---A--- 0 4.1221 20.815 3 11905
- 0.405884 5 20 tcp 40 ------- 0 5.1531 20.848 0 12835
- 0.406012 5 20 tcp 1540 ------- 0 5.1521 20.838 29 13051
+ 0.408631 5 20 tcp 1540 ------- 0 5.1567 20.884 7 14696
+ 0.408631 5 20 tcp 1540 ------- 0 5.1567 20.884 8 14697
r 0.409658 5 20 tcp 1540 ------- 0 5.1521 20.838 26 12490
- 0.41094 5 20 tcp 1540 ------- 0 5.1521 20.838 30 13250
r 0.414586 5 20 tcp 1540 ------- 0 3.1355 20.790 1 12303
r 0.414714 5 20 tcp 40 ------- 0 5.1531 20.848 0 12835
+ 0.415391 5 20 tcp 40 ------- 0 17.1333 20.1181 0 10036
- 0.415868 5 20 tcp 1540 ------- 0 5.1521 20.838 32 13464
+ 0.418487 5 20 tcp 1540 ------- 0 5.1521 20.838 33 15067
+ 0.418487 5 20 tcp 1540 ------- 0 5.1521 20.838 34 15068
d 0.418487 5 20 tcp 1540 ------- 0 5.1521 20.838 34 15068
r 0.419642 5 20 tcp 1540 ------- 0 5.1521 20.838 29 13051
- 0.420796 5 20 tcp 1540 ------- 0 5.1564 20.881 15 13647
+ 0.420909 5 20 tcp 40 ------- 0 21.412 20.1241 0 9298
+ 0.423543 5 20 tcp 1540 ------- 0 5.1531 20.848 1 15269
d 0.423543 5 20 tcp 1540 ------- 0 5.1531 20.848 1 15269
+ 0.423543 5 20 tcp 1540 ------- 0 5.1531 20.848 2 15270
d 0.423543 5 20 tcp 1540 ------- 0 5.1531 20.848 2 15270
r 0.42457 5 20 tcp 1540 ------- 0 5.1521 20.838 30 13250
+ 0.425363 5 20 ack 40 ------- 0 0.460 20.6 0 15133
d 0.425363 5 20 ack 40 ------- 0 0.460 20.6 0 15133
- 0.425724 5 20 tcp 1540 ------- 0 3.1369 20.804 2 13151
+ 0.426595 5 20 tcp 1540 ------- 0 4.1221 20.815 4 15240
+ 0.427827 5 20 tcp 1540 ------- 0 4.1221 20.815 5 15241
d 0.427827 5 20 tcp 1540 ------- 0 4.1221 20.815 5 15241
+ 0.428471 5 20 tcp 1540 ------- 0 5.1521 20.838 35 15457
d 0.428471 5 20 tcp 1540 ------- 0 5.1521 20.838 35 15457
r 0.429498 5 20 tcp 1540 ------- 0 5.1521 20.838 32 13464
- 0.430652 5 20 tcp 1540 ------- 0 5.1564 20.881 18 14101
+ 0.433399 5 20 tcp 1540 ------- 0 5.1521 20.838 36 15646
r 0.434426 5 20 tcp 1540 ------- 0 5.1564 20.881 15 13647
+ 0.435001 5 20 tcp 40 ------- 0 5.1555 20.872 0 15719
d 0.435001 5 20 tcp 40 ------- 0 5.1555 20.872 0 15719
- 0.43558 5 20 tcp 1540 ---A--- 0 5.1564 20.881 8 14273
+ 0.436483 5 20 tcp 1540 ------- 0 0.1305 20.678 3 15304
+ 0.438947 5 20 tcp 1540 ------- 0 0.1305 20.678 4 15305
d 0.438947 5 20 tcp 1540 ------- 0 0.1305 20.678 4 15305
r 0.439354 5 20 tcp 1540 ------- 0 3.1369 20.804 2 13151
- 0.440508 5 20 tcp 1540 ------- 0 0.1312 20.685 4 13777
r 0.444282 5 20 tcp 1540 ------- 0 5.1564 20.881 18 14101
- 0.445436 5 20 tcp 1540 ------- 0 5.1567 20.884 7 14696
r 0.44921 5 20 tcp 1540 ---A--- 0 5.1564 20.881 8 14273
- 0.450364 5 20 tcp 1540 ------- 0 5.1567 20.884 8 14697
+ 0.452221 5 20 tcp 40 ------- 0 21.400 20.1229 0 10695
r 0.454138 5 20 tcp 1540 ------- 0 0.1312 20.685 4 13777
- 0.455292 5 20 tcp 40 ------- 0 17.1333 20.1181 0 10036
- 0.45542 5 20 tcp 1540 ------- 0 5.1521 20.838 33 15067
+ 0.458039 5 20 tcp 1540 ------- 0 5.1564 20.881 10 16676
+ 0.458039 5 20 tcp 1540 ------- 0 5.1564 20.881 11 16677
r 0.459066 5 20 tcp 1540 ------- 0 5.1567 20.884 7 14696
+ 0.459173 5 20 tcp 40 ------- 0 3.1366 20.801 0 16316
- 0.460348 5 20 tcp 40 ------- 0 21.412 20.1241 0 9298
- 0.460476 5 20 tcp 1540 ------- 0 4.1221 20.815 4 15240
r 0.463994 5 20 tcp 1540 ------- 0 5.1567 20.884 8 14697
r 0.464122 5 20 tcp 40 ------- 0 17.1333 20.1181 0 10036
- 0.465404 5 20 tcp 1540 ------- 0 5.1521 20.838 36 15646
+ 0.467895 5 20 tcp 1540 ------- 0 5.1567 20.884 9 17035
r 0.46905 5 20 tcp 1540 ------- 0 5.1521 20.838 33 15067
r 0.469178 5 20 tcp 40 ------- 0 21.412 20.1241 0 9298
- 0.470332 5 20 tcp 1540 ------- 0 0.1305 20.678 3 15304
+ 0.472823 5 20 tcp 1540 ------- 0 5.1567 20.884 10 17263
r 0.474106 5 20 tcp 1540 ------- 0 4.1221 20.815 4 15240
- 0.47526 5 20 tcp 40 ------- 0 21.400 20.1229 0 10695
- 0.475388 5 20 tcp 1540 ------- 0 5.1564 20.881 10 16676
+ 0.479013 5 20 tcp 1540 ------- 0 3.1355 20.790 3 17164
r 0.479034 5 20 tcp 1540 ------- 0 5.1521 20.838 36 15646
+ 0.480245 5 20 tcp 1540 ------- 0 3.1355 20.790 4 17165
- 0.480316 5 20 tcp 1540 ------- 0 5.1564 20.881 11 16677
r 0.483962 5 20 tcp 1540 ------- 0 0.1305 20.678 3 15304
r 0.48409 5 20 tcp 40 ------- 0 21.400 20.1229 0 10695
- 0.485244 5 20 tcp 40 ------- 0 3.1366 20.801 0 16316
- 0.485372 5 20 tcp 1540 ------- 0 5.1567 20.884 9 17035
r 0.489018 5 20 tcp 1540 ------- 0 5.1564 20.881 10 16676
- 0.4903 5 20 tcp 1540 ------- 0 5.1567 20.884 10 17263
+ 0.491717 5 20 tcp 40 ------- 0 3.1345 20.780 0 17740
+ 0.491749 5 20 tcp 40 ------- 0 21.455 20.1284 0 13197
+ 0.492131 5 20 tcp 40 ------- 0 4.1223 20.817 0 17926
r 0.493946 5 20 tcp 1540 ------- 0 5.1564 20.881 11 16677
r 0.494074 5 20 tcp 40 ------- 0 3.1366 20.801 0 16316
- 0.495228 5 20 tcp 1540 ------- 0 3.1355 20.790 3 17164
+ 0.496805 5 20 tcp 1540 ------- 0 3.1369 20.804 4 17821
+ 0.497847 5 20 tcp 1540 ------- 0 5.1564 20.881 13 18300
+ 0.497847 5 20 tcp 1540 ------- 0 5.1564 20.881 14 18301
+ 0.497847 5 20 tcp 1540 ------- 0 5.1564 20.881 15 18302
r 0.499002 5 20 tcp 1540 ------- 0 5.1567 20.884 9 17035
- 0.500156 5 20 tcp 1540 ------- 0 3.1355 20.790 4 17165
+ 0.502775 5 20 tcp 1540 ------- 0 5.1564 20.881 16 18518
r 0.50393 5 20 tcp 1540 ------- 0 5.1567 20.884 10 17263
- 0.505084 5 20 tcp 40 ------- 0 3.1345 20.780 0 17740
- 0.505212 5 20 tcp 40 ------- 0 21.455 20.1284 0 13197
- 0.50534 5 20 tcp 40 ------- 0 4.1223 20.817 0 17926
- 0.505468 5 20 tcp 1540 ------- 0 3.1369 20.804 4 17821
+ 0.507831 5 20 tcp 1540 ---A--- 0 5.1567 20.884 4 18693
r 0.508858 5 20 tcp 1540 ------- 0 3.1355 20.790 3 17164
+ 0.509496 5 20 tcp 1540 ------- 0 4.1221 20.815 6 18456
- 0.510396 5 20 tcp 1540 ------- 0 5.1564 20.881 13 18300
r 0.513786 5 20 tcp 1540 ------- 0 3.1355 20.790 4 17165
r 0.513914 5 20 tcp 40 ------- 0 3.1345 20.780 0 17740
r 0.514042 5 20 tcp 40 ------- 0 21.455 20.1284 0 13197
r 0.51417 5 20 tcp 40 ------- 0 4.1223 20.817 0 17926
- 0.515324 5 20 tcp 1540 ------- 0 5.1564 20.881 14 18301
r 0.519098 5 20 tcp 1540 ------- 0 3.1369 20.804 4 17821
- 0.520252 5 20 tcp 1540 ------- 0 5.1564 20.881 15 18302
r 0.524026 5 20 tcp 1540 ------- 0 5.1564 20.881 13 18300
+ 0.524855 5 20 tcp 1540 ---A--- 0 5.1538 20.855 1 19385
- 0.52518 5 20 tcp 1540 ------- 0 5.1564 20.881 16 18518
+ 0.525347 5 20 tcp 40 ------- 0 4.1230 20.824 0 19300
r 0.528954 5 20 tcp 1540 ------- 0 5.1564 20.881 14 18301
- 0.530108 5 20 tcp 1540 ---A--- 0 5.1567 20.884 4 18693
+ 0.532855 5 20 tcp 1540 ------- 0 5.1564 20.881 17 19621
r 0.533882 5 20 tcp 1540 ------- 0 5.1564 20.881 15 18302
- 0.535036 5 20 tcp 1540 ------- 0 4.1221 20.815 6 18456
+ 0.537783 5 20 tcp 1540 ------- 0 5.1564 20.881 18 19813
+ 0.537783 5 20 tcp 1540 ------- 0 5.1564 20.881 19 19814
r 0.53881 5 20 tcp 1540 ------- 0 5.1564 20.881 16 18518
- 0.539964 5 20 tcp 1540 ---A--- 0 5.1538 20.855 1 19385
+ 0.542711 5 20 tcp 1540 ------- 0 5.1564 20.881 20 19986
r 0.543738 5 20 tcp 1540 ---A--- 0 5.1567 20.884 4 18693
+ 0.544581 5 20 tcp 40 ------- 0 21.471 20.1300 0 15186
- 0.544892 5 20 tcp 40 ------- 0 4.1230 20.824 0 19300
- 0.54502 5 20 tcp 1540 ------- 0 5.1564 20.881 17 19621
r 0.548666 5 20 tcp 1540 ------- 0 4.1221 20.815 6 18456
- 0.549948 5 20 tcp 1540 ------- 0 5.1564 20.881 18 19813
+ 0.552567 5 20 tcp 1540 ------- 0 5.1567 20.884 5 20345
+ 0.552567 5 20 tcp 1540 ------- 0 5.1567 20.884 6 20346
+ 0.553342 5 20 tcp 1540 ------- 0 4.1223 20.817 1 20227
r 0.553594 5 20 tcp 1540 ---A--- 0 5.1538 20.855 1 19385
r 0.553722 5 20 tcp 40 ------- 0 4.1230 20.824 0 19300
+ 0.554574 5 20 tcp 1540 ------- 0 4.1223 20.817 2 20228
+ 0.554853 5 20 tcp 1540 ------- 0 3.1355 20.790 5 19990
- 0.554876 5 20 tcp 1540 ------- 0 5.1564 20.881 19 19814
+ 0.556085 5 20 tcp 1540 ------- 0 3.1355 20.790 6 19991
+ 0.557317 5 20 tcp 1540 ------- 0 3.1345 20.780 1 19992
+ 0.557503 5 20 tcp 40 ------- 0 5.1524 20.841 0 20587
d 0.557503 5 20 tcp 40 ------- 0 5.1524 20.841 0 20587
r 0.55865 5 20 tcp 1540 ------- 0 5.1564 20.881 17 19621
- 0.559804 5 20 tcp 1540 ------- 0 5.1564 20.881 20 19986
+ 0.560101 5 20 tcp 40 ------- 0 21.419 20.1248 0 15947
+ 0.562423 5 20 tcp 1540 ------- 0 5.1538 20.855 2 20827
d 0.562423 5 20 tcp 1540 ------- 0 5.1538 20.855 2 20827
+ 0.562423 5 20 tcp 1540 ------- 0 5.1538 20.855 3 20828
d 0.562423 5 20 tcp 1540 ------- 0 5.1538 20.855 3 20828
r 0.563578 5 20 tcp 1540 ------- 0 5.1564 20.881 18 19813
- 0.564732 5 20 tcp 40 ------- 0 21.471 20.1300 0 15186
- 0.56486 5 20 tcp 1540 ------- 0 5.1567 20.884 5 20345
+ 0.567479 5 20 tcp 1540 ------- 0 5.1564 20.881 21 21059
+ 0.567479 5 20 tcp 1540 ------- 0 5.1564 20.881 22 21060
r 0.568506 5 20 tcp 1540 ------- 0 5.1564 20.881 19 19814
- 0.569788 5 20 tcp 1540 ------- 0 5.1567 20.884 6 20346
+ 0.572407 5 20 tcp 1540 ------- 0 5.1564 20.881 23 21241
+ 0.572532 5 20 tcp 40 ------- 0 5.1537 20.854 0 21250
d 0.572532 5 20 tcp 40 ------- 0 5.1537 20.854 0 21250
r 0.573434 5 20 tcp 1540 ------- 0 5.1564 20.881 20 19986
r 0.573562 5 20 tcp 40 ------- 0 21.471 20.1300 0 15186
- 0.574716 5 20 tcp 1540 ------- 0 4.1223 20.817 1 20227
r 0.57849 5 20 tcp 1540 ------- 0 5.1567 20.884 5 20345
- 0.579644 5 20 tcp 1540 ------- 0 4.1223 20.817 2 20228
+ 0.582263 5 20 tcp 1540 ------- 0 5.1564 20.881 24 21745
+ 0.582263 5 20 tcp 1540 ------- 0 5.1564 20.881 25 21746
r 0.583418 5 20 tcp 1540 ------- 0 5.1567 20.884 6 20346
- 0.584572 5 20 tcp 1540 ------- 0 3.1355 20.790 5 19990
+ 0.587319 5 20 tcp 1540 ------- 0 5.1567 20.884 7 21947
r 0.588346 5 20 tcp 1540 ------- 0 4.1223 20.817 1 20227
- 0.5895 5 20 tcp 1540 ------- 0 3.1355 20.790 6 19991
+ 0.591421 5 20 tcp 1540 ------- 0 4.1221 20.815 7 21940
+ 0.592247 5 20 tcp 1540 ------- 0 5.1567 20.884 11 22128