+ 0.00017 0 1 rtProtoDV 26 ------- 0 0.1454 1.2013 -1 1
- 0.00017 0 1 rtProtoDV 26 ------- 0 0.1454 1.2013 -1 1
r 0.002249 0 1 rtProtoDV 26 ------- 0 0.1454 1.2013 -1 1
+ 0.003148 0 1 ack 40 ------- 0 0.50 1.50 0 42
- 0.003148 0 1 ack 40 ------- 0 0.50 1.50 0 42
+ 0.003496 0 1 rtProtoDV 26 ------- 0 0.1454 1.2013 -1 46
- 0.003496 0 1 rtProtoDV 26 ------- 0 0.1454 1.2013 -1 46
+ 0.004328 0 1 rtProtoDV 26 ------- 0 0.1454 1.2013 -1 63
- 0.004328 0 1 rtProtoDV 26 ------- 0 0.1454 1.2013 -1 63
+ 0.00512 0 1 rtProtoDV 26 ------- 0 0.1454 1.2013 -1 84
- 0.00512 0 1 rtProtoDV 26 ------- 0 0.1454 1.2013 -1 84
r 0.005238 0 1 ack 40 ------- 0 0.50 1.50 0 42
r 0.005575 0 1 rtProtoDV 26 ------- 0 0.1454 1.2013 -1 46
+ 0.005689 0 1 rtProtoDV 26 ------- 0 0.1454 1.2013 -1 110
- 0.005689 0 1 rtProtoDV 26 ------- 0 0.1454 1.2013 -1 110
+ 0.005941 0 1 rtProtoDV 26 ------- 0 0.1454 1.2013 -1 116
- 0.005941 0 1 rtProtoDV 26 ------- 0 0.1454 1.2013 -1 116
r 0.006407 0 1 rtProtoDV 26 ------- 0 0.1454 1.2013 -1 63
r 0.0072 0 1 rtProtoDV 26 ------- 0 0.1454 1.2013 -1 84
r 0.007769 0 1 rtProtoDV 26 ------- 0 0.1454 1.2013 -1 110
r 0.00802 0 1 rtProtoDV 26 ------- 0 0.1454 1.2013 -1 116
+ 0.00816 0 1 rtProtoDV 26 ------- 0 0.1454 1.2013 -1 213
- 0.00816 0 1 rtProtoDV 26 ------- 0 0.1454 1.2013 -1 213
+ 0.008529 0 1 ack 40 ------- 0 0.50 1.50 1 233
- 0.008529 0 1 ack 40 ------- 0 0.50 1.50 1 233
+ 0.009761 0 1 ack 40 ------- 0 0.50 1.50 2 274
- 0.009761 0 1 ack 40 ------- 0 0.50 1.50 2 274
r 0.010239 0 1 rtProtoDV 26 ------- 0 0.1454 1.2013 -1 213
r 0.010619 0 1 ack 40 ------- 0 0.50 1.50 1 233
+ 0.010912 0 1 rtProtoDV 26 ------- 0 0.1454 1.2013 -1 353
- 0.010912 0 1 rtProtoDV 26 ------- 0 0.1454 1.2013 -1 353
r 0.011851 0 1 ack 40 ------- 0 0.50 1.50 2 274
r 0.012991 0 1 rtProtoDV 26 ------- 0 0.1454 1.2013 -1 353
+ 0.013909 0 1 ack 40 ------- 0 0.50 1.50 3 517
- 0.013909 0 1 ack 40 ------- 0 0.50 1.50 3 517
+ 0.014544 0 1 rtProtoDV 26 ------- 0 0.1454 1.2013 -1 540
- 0.014544 0 1 rtProtoDV 26 ------- 0 0.1454 1.2013 -1 540
+ 0.014786 0 1 ack 40 ------- 0 4.134 1.1141 0 435
- 0.014786 0 1 ack 40 ------- 0 4.134 1.1141 0 435
+ 0.014807 0 1 rtProtoDV 26 ------- 0 0.1454 1.2013 -1 552
- 0.014818 0 1 rtProtoDV 26 ------- 0 0.1454 1.2013 -1 552
+ 0.015141 0 1 ack 40 ------- 0 0.50 1.50 4 568
- 0.015141 0 1 ack 40 ------- 0 0.50 1.50 4 568
+ 0.015811 0 1 tcp 40 ------- 0 10.1040 21.726 0 315
- 0.015811 0 1 tcp 40 ------- 0 10.1040 21.726 0 315
r 0.016 0 1 ack 40 ------- 0 0.50 1.50 3 517
+ 0.016373 0 1 ack 40 ------- 0 0.50 1.50 5 607
- 0.016373 0 1 ack 40 ------- 0 0.50 1.50 5 607
r 0.016623 0 1 rtProtoDV 26 ------- 0 0.1454 1.2013 -1 540
+ 0.016672 0 1 rtProtoDV 26 ------- 0 0.1454 1.2013 -1 618
- 0.016672 0 1 rtProtoDV 26 ------- 0 0.1454 1.2013 -1 618
r 0.016877 0 1 ack 40 ------- 0 4.134 1.1141 0 435
r 0.016898 0 1 rtProtoDV 26 ------- 0 0.1454 1.2013 -1 552
+ 0.017059 0 1 rtProtoDV 26 ------- 0 0.1454 1.2013 -1 640
- 0.017059 0 1 rtProtoDV 26 ------- 0 0.1454 1.2013 -1 640
r 0.017232 0 1 ack 40 ------- 0 0.50 1.50 4 568
+ 0.017605 0 1 ack 40 ------- 0 0.50 1.50 6 662
- 0.017605 0 1 ack 40 ------- 0 0.50 1.50 6 662
r 0.017901 0 1 tcp 40 ------- 0 10.1040 21.726 0 315
r 0.018464 0 1 ack 40 ------- 0 0.50 1.50 5 607
r 0.018751 0 1 rtProtoDV 26 ------- 0 0.1454 1.2013 -1 618
r 0.019138 0 1 rtProtoDV 26 ------- 0 0.1454 1.2013 -1 640
+ 0.01929 0 1 ack 40 ------- 0 0.50 1.50 7 726
- 0.01929 0 1 ack 40 ------- 0 0.50 1.50 7 726
r 0.019696 0 1 ack 40 ------- 0 0.50 1.50 6 662
+ 0.020522 0 1 ack 40 ------- 0 0.50 1.50 8 760
- 0.020522 0 1 ack 40 ------- 0 0.50 1.50 8 760
r 0.021381 0 1 ack 40 ------- 0 0.50 1.50 7 726
r 0.022613 0 1 ack 40 ------- 0 0.50 1.50 8 760
+ 0.022631 0 1 ack 40 ------- 0 4.593 16.158 0 749
- 0.022631 0 1 ack 40 ------- 0 4.593 16.158 0 749
+ 0.023097 0 1 tcp 40 ------- 0 15.1371 21.810 0 579
- 0.023097 0 1 tcp 40 ------- 0 15.1371 21.810 0 579
+ 0.024156 0 1 tcp 40 ------- 0 0.1382 21.527 0 863
- 0.024156 0 1 tcp 40 ------- 0 0.1382 21.527 0 863
+ 0.02426 0 1 ack 40 ------- 0 0.50 1.50 9 867
- 0.02426 0 1 ack 40 ------- 0 0.50 1.50 9 867
r 0.024722 0 1 ack 40 ------- 0 4.593 16.158 0 749
r 0.025187 0 1 tcp 40 ------- 0 15.1371 21.810 0 579
+ 0.025492 0 1 ack 40 ------- 0 0.50 1.50 10 885
- 0.025492 0 1 ack 40 ------- 0 0.50 1.50 10 885
+ 0.026047 0 1 tcp 40 ------- 0 3.1204 16.502 0 743
- 0.026047 0 1 tcp 40 ------- 0 3.1204 16.502 0 743
r 0.026247 0 1 tcp 40 ------- 0 0.1382 21.527 0 863
r 0.02635 0 1 ack 40 ------- 0 0.50 1.50 9 867
+ 0.026668 0 1 ack 40 ------- 0 15.686 1.1703 0 729
- 0.026668 0 1 ack 40 ------- 0 15.686 1.1703 0 729
+ 0.026724 0 1 ack 40 ------- 0 0.50 1.50 11 914
- 0.026724 0 1 ack 40 ------- 0 0.50 1.50 11 914
+ 0.026737 0 1 tcp 40 ------- 0 12.47 1.563 0 678
- 0.026756 0 1 tcp 40 ------- 0 12.47 1.563 0 678
+ 0.027524 0 1 ack 40 ------- 0 0.482 21.8 0 927
- 0.027524 0 1 ack 40 ------- 0 0.482 21.8 0 927
r 0.027582 0 1 ack 40 ------- 0 0.50 1.50 10 885
+ 0.027674 0 1 tcp 40 ------- 0 4.1266 21.605 0 879
- 0.027674 0 1 tcp 40 ------- 0 4.1266 21.605 0 879
+ 0.027948 0 1 ack 40 ------- 0 4.134 1.1141 1 884
- 0.027948 0 1 ack 40 ------- 0 4.134 1.1141 1 884
+ 0.027956 0 1 ack 40 ------- 0 0.50 1.50 12 941
- 0.02798 0 1 ack 40 ------- 0 0.50 1.50 12 941
r 0.028138 0 1 tcp 40 ------- 0 3.1204 16.502 0 743
r 0.028759 0 1 ack 40 ------- 0 15.686 1.1703 0 729
r 0.028814 0 1 ack 40 ------- 0 0.50 1.50 11 914
r 0.028846 0 1 tcp 40 ------- 0 12.47 1.563 0 678
+ 0.02925 0 1 ack 40 ------- 0 0.50 1.50 13 975
- 0.02925 0 1 ack 40 ------- 0 0.50 1.50 13 975
+ 0.029337 0 1 ack 40 ------- 0 4.134 1.1141 2 913
- 0.029337 0 1 ack 40 ------- 0 4.134 1.1141 2 913
r 0.029615 0 1 ack 40 ------- 0 0.482 21.8 0 927
r 0.029765 0 1 tcp 40 ------- 0 4.1266 21.605 0 879
r 0.030038 0 1 ack 40 ------- 0 4.134 1.1141 1 884
r 0.03007 0 1 ack 40 ------- 0 0.50 1.50 12 941
+ 0.030482 0 1 ack 40 ------- 0 0.50 1.50 14 1006
- 0.030482 0 1 ack 40 ------- 0 0.50 1.50 14 1006
+ 0.030601 0 1 tcp 40 ------- 0 15.63 1.601 0 818
- 0.030601 0 1 tcp 40 ------- 0 15.63 1.601 0 818
r 0.031341 0 1 ack 40 ------- 0 0.50 1.50 13 975
r 0.031428 0 1 ack 40 ------- 0 4.134 1.1141 2 913
+ 0.031746 0 1 ack 40 ------- 0 0.50 1.50 15 1038
- 0.031746 0 1 ack 40 ------- 0 0.50 1.50 15 1038
r 0.032573 0 1 ack 40 ------- 0 0.50 1.50 14 1006
r 0.032692 0 1 tcp 40 ------- 0 15.63 1.601 0 818
+ 0.032978 0 1 ack 40 ------- 0 0.50 1.50 16 1064
- 0.032978 0 1 ack 40 ------- 0 0.50 1.50 16 1064
+ 0.033097 0 1 tcp 40 ------- 0 20.55 1.840 0 599
- 0.033097 0 1 tcp 40 ------- 0 20.55 1.840 0 599
+ 0.033129 0 1 tcp 40 ------- 0 20.87 1.872 0 695
- 0.033129 0 1 tcp 40 ------- 0 20.87 1.872 0 695
+ 0.033161 0 1 tcp 40 ------- 0 4.1298 21.637 0 1007
- 0.033161 0 1 tcp 40 ------- 0 4.1298 21.637 0 1007
r 0.033837 0 1 ack 40 ------- 0 0.50 1.50 15 1038
+ 0.034122 0 1 tcp 40 ------- 0 2.1240 24.646 0 948
- 0.034122 0 1 tcp 40 ------- 0 2.1240 24.646 0 948
+ 0.034167 0 1 tcp 40 ------- 0 14.1305 16.694 0 877
- 0.034167 0 1 tcp 40 ------- 0 14.1305 16.694 0 877
+ 0.03421 0 1 ack 40 ------- 0 0.50 1.50 17 1092
- 0.03421 0 1 ack 40 ------- 0 0.50 1.50 17 1092
r 0.035069 0 1 ack 40 ------- 0 0.50 1.50 16 1064
r 0.035188 0 1 tcp 40 ------- 0 20.55 1.840 0 599
r 0.03522 0 1 tcp 40 ------- 0 20.87 1.872 0 695
r 0.035252 0 1 tcp 40 ------- 0 4.1298 21.637 0 1007
+ 0.035442 0 1 ack 40 ------- 0 0.50 1.50 18 1121
- 0.035442 0 1 ack 40 ------- 0 0.50 1.50 18 1121
+ 0.035495 0 1 ack 40 ------- 0 0.83 1.83 0 1123
- 0.035495 0 1 ack 40 ------- 0 0.83 1.83 0 1123
r 0.036212 0 1 tcp 40 ------- 0 2.1240 24.646 0 948
r 0.036257 0 1 tcp 40 ------- 0 14.1305 16.694 0 877
r 0.036301 0 1 ack 40 ------- 0 0.50 1.50 17 1092
+ 0.036791 0 1 ack 40 ------- 0 0.50 1.50 19 1150
- 0.036791 0 1 ack 40 ------- 0 0.50 1.50 19 1150
r 0.037533 0 1 ack 40 ------- 0 0.50 1.50 18 1121
r 0.037585 0 1 ack 40 ------- 0 0.83 1.83 0 1123
+ 0.038023 0 1 ack 40 ------- 0 0.50 1.50 20 1182
- 0.038023 0 1 ack 40 ------- 0 0.50 1.50 20 1182
+ 0.038635 0 1 tcp 40 ------- 0 0.1402 24.485 0 1190
- 0.038635 0 1 tcp 40 ------- 0 0.1402 24.485 0 1190
r 0.038881 0 1 ack 40 ------- 0 0.50 1.50 19 1150
+ 0.039255 0 1 ack 40 ------- 0 0.50 1.50 21 1211
- 0.039255 0 1 ack 40 ------- 0 0.50 1.50 21 1211
r 0.040113 0 1 ack 40 ------- 0 0.50 1.50 20 1182
+ 0.040487 0 1 ack 40 ------- 0 0.50 1.50 22 1244
- 0.040487 0 1 ack 40 ------- 0 0.50 1.50 22 1244
+ 0.040519 0 1 ack 40 ------- 0 0.35 1.35 0 1246
- 0.040519 0 1 ack 40 ------- 0 0.35 1.35 0 1246
r 0.040725 0 1 tcp 40 ------- 0 0.1402 24.485 0 1190
r 0.041345 0 1 ack 40 ------- 0 0.50 1.50 21 1211
r 0.042577 0 1 ack 40 ------- 0 0.50 1.50 22 1244
r 0.042609 0 1 ack 40 ------- 0 0.35 1.35 0 1246
+ 0.043194 0 1 ack 40 ------- 0 3.95 1.1088 0 1153
- 0.043194 0 1 ack 40 ------- 0 3.95 1.1088 0 1153
+ 0.044215 0 1 ack 40 ------- 0 0.50 1.50 23 1338
- 0.044215 0 1 ack 40 ------- 0 0.50 1.50 23 1338
r 0.045284 0 1 ack 40 ------- 0 3.95 1.1088 0 1153
+ 0.045361 0 1 tcp 1540 ------- 0 0.1382 21.527 1 1373
- 0.045361 0 1 tcp 1540 ------- 0 0.1382 21.527 1 1373
+ 0.045361 0 1 tcp 1540 ------- 0 0.1382 21.527 2 1374
+ 0.045447 0 1 ack 40 ------- 0 0.50 1.50 24 1375
r 0.046305 0 1 ack 40 ------- 0 0.50 1.50 23 1338
- 0.046593 0 1 tcp 1540 ------- 0 0.1382 21.527 2 1374
- 0.047825 0 1 ack 40 ------- 0 0.50 1.50 24 1375
+ 0.048105 0 1 tcp 40 ------- 0 0.1420 24.503 0 1432
- 0.048105 0 1 tcp 40 ------- 0 0.1420 24.503 0 1432
+ 0.048206 0 1 ack 40 ------- 0 3.508 16.61 0 1273
- 0.048206 0 1 ack 40 ------- 0 3.508 16.61 0 1273
r 0.048651 0 1 tcp 1540 ------- 0 0.1382 21.527 1 1373
+ 0.049175 0 1 ack 40 ------- 0 0.50 1.50 25 1460
- 0.049175 0 1 ack 40 ------- 0 0.50 1.50 25 1460
r 0.049883 0 1 tcp 1540 ------- 0 0.1382 21.527 2 1374
r 0.049915 0 1 ack 40 ------- 0 0.50 1.50 24 1375
r 0.050195 0 1 tcp 40 ------- 0 0.1420 24.503 0 1432
r 0.050297 0 1 ack 40 ------- 0 3.508 16.61 0 1273
+ 0.050407 0 1 ack 40 ------- 0 0.50 1.50 26 1490
- 0.050407 0 1 ack 40 ------- 0 0.50 1.50 26 1490
r 0.051265 0 1 ack 40 ------- 0 0.50 1.50 25 1460
+ 0.051639 0 1 ack 40 ------- 0 0.50 1.50 27 1526
- 0.051639 0 1 ack 40 ------- 0 0.50 1.50 27 1526
+ 0.052171 0 1 tcp 40 ------- 0 10.64 1.460 0 1203
- 0.052171 0 1 tcp 40 ------- 0 10.64 1.460 0 1203
r 0.052497 0 1 ack 40 ------- 0 0.50 1.50 26 1490
+ 0.052871 0 1 ack 40 ------- 0 0.50 1.50 28 1557
- 0.052871 0 1 ack 40 ------- 0 0.50 1.50 28 1557
+ 0.053018 0 1 tcp 40 ------- 0 4.1313 21.652 0 1409
- 0.053018 0 1 tcp 40 ------- 0 4.1313 21.652 0 1409
r 0.053729 0 1 ack 40 ------- 0 0.50 1.50 27 1526
r 0.054262 0 1 tcp 40 ------- 0 10.64 1.460 0 1203
+ 0.054729 0 1 ack 40 ------- 0 0.482 21.8 1 1608
- 0.054729 0 1 ack 40 ------- 0 0.482 21.8 1 1608
r 0.054961 0 1 ack 40 ------- 0 0.50 1.50 28 1557
r 0.055108 0 1 tcp 40 ------- 0 4.1313 21.652 0 1409
+ 0.056599 0 1 ack 40 ------- 0 0.50 1.50 29 1655
- 0.056599 0 1 ack 40 ------- 0 0.50 1.50 29 1655
r 0.056819 0 1 ack 40 ------- 0 0.482 21.8 1 1608
+ 0.057831 0 1 ack 40 ------- 0 0.50 1.50 30 1691
- 0.057831 0 1 ack 40 ------- 0 0.50 1.50 30 1691
r 0.058689 0 1 ack 40 ------- 0 0.50 1.50 29 1655
+ 0.059127 0 1 ack 40 ------- 0 0.50 1.50 31 1732
- 0.059127 0 1 ack 40 ------- 0 0.50 1.50 31 1732
+ 0.059657 0 1 ack 40 ------- 0 0.482 21.8 2 1745
- 0.059657 0 1 ack 40 ------- 0 0.482 21.8 2 1745
+ 0.059721 0 1 ack 40 ------- 0 0.503 21.29 0 1749
- 0.059721 0 1 ack 40 ------- 0 0.503 21.29 0 1749
r 0.059921 0 1 ack 40 ------- 0 0.50 1.50 30 1691
+ 0.060359 0 1 ack 40 ------- 0 0.50 1.50 32 1764
- 0.060359 0 1 ack 40 ------- 0 0.50 1.50 32 1764
+ 0.060827 0 1 tcp 1540 ------- 0 10.1040 21.726 1 1290
- 0.060827 0 1 tcp 1540 ------- 0 10.1040 21.726 1 1290
r 0.061217 0 1 ack 40 ------- 0 0.50 1.50 31 1732
+ 0.061591 0 1 ack 40 ------- 0 0.50 1.50 33 1794
r 0.061747 0 1 ack 40 ------- 0 0.482 21.8 2 1745
r 0.061811 0 1 ack 40 ------- 0 0.503 21.29 0 1749
+ 0.06193 0 1 ack 40 ------- 0 4.134 1.1141 3 1566
- 0.062059 0 1 ack 40 ------- 0 0.50 1.50 33 1794
- 0.062091 0 1 ack 40 ------- 0 4.134 1.1141 3 1566
+ 0.062422 0 1 tcp 40 ------- 0 19.1241 24.967 0 1669
- 0.062422 0 1 tcp 40 ------- 0 19.1241 24.967 0 1669
r 0.062449 0 1 ack 40 ------- 0 0.50 1.50 32 1764
+ 0.062823 0 1 ack 40 ------- 0 0.50 1.50 34 1830
- 0.062823 0 1 ack 40 ------- 0 0.50 1.50 34 1830
+ 0.063194 0 1 ack 40 ------- 0 4.134 1.1141 4 1599
- 0.063194 0 1 ack 40 ------- 0 4.134 1.1141 4 1599
r 0.064118 0 1 tcp 1540 ------- 0 10.1040 21.726 1 1290
r 0.06415 0 1 ack 40 ------- 0 0.50 1.50 33 1794
r 0.064182 0 1 ack 40 ------- 0 4.134 1.1141 3 1566
r 0.064512 0 1 tcp 40 ------- 0 19.1241 24.967 0 1669
+ 0.064523 0 1 tcp 1540 ------- 0 10.1040 21.726 2 1291
- 0.064523 0 1 tcp 1540 ------- 0 10.1040 21.726 2 1291
r 0.064913 0 1 ack 40 ------- 0 0.50 1.50 34 1830
r 0.065284 0 1 ack 40 ------- 0 4.134 1.1141 4 1599
+ 0.065287 0 1 ack 40 ------- 0 0.50 1.50 35 1908
+ 0.06569 0 1 ack 40 ------- 0 15.686 1.1703 1 1538
+ 0.065722 0 1 ack 40 ------- 0 4.134 1.1141 5 1690
- 0.065755 0 1 ack 40 ------- 0 0.50 1.50 35 1908
- 0.065787 0 1 ack 40 ------- 0 15.686 1.1703 1 1538
- 0.065819 0 1 ack 40 ------- 0 4.134 1.1141 5 1690
+ 0.066519 0 1 ack 40 ------- 0 0.50 1.50 36 1931
- 0.066519 0 1 ack 40 ------- 0 0.50 1.50 36 1931
+ 0.066986 0 1 ack 40 ------- 0 15.686 1.1703 2 1577
- 0.066986 0 1 ack 40 ------- 0 15.686 1.1703 2 1577
+ 0.067018 0 1 ack 40 ------- 0 4.134 1.1141 6 1730
- 0.067018 0 1 ack 40 ------- 0 4.134 1.1141 6 1730
+ 0.067783 0 1 ack 40 ------- 0 0.50 1.50 37 1962
- 0.067783 0 1 ack 40 ------- 0 0.50 1.50 37 1962
r 0.067814 0 1 tcp 1540 ------- 0 10.1040 21.726 2 1291
r 0.067846 0 1 ack 40 ------- 0 0.50 1.50 35 1908
r 0.067878 0 1 ack 40 ------- 0 15.686 1.1703 1 1538
r 0.06791 0 1 ack 40 ------- 0 4.134 1.1141 5 1690
r 0.068609 0 1 ack 40 ------- 0 0.50 1.50 36 1931
+ 0.069015 0 1 ack 40 ------- 0 0.50 1.50 38 2013
- 0.069015 0 1 ack 40 ------- 0 0.50 1.50 38 2013
r 0.069076 0 1 ack 40 ------- 0 15.686 1.1703 2 1577
r 0.069108 0 1 ack 40 ------- 0 4.134 1.1141 6 1730
+ 0.06961 0 1 tcp 40 ------- 0 15.65 1.603 0 1650
- 0.06961 0 1 tcp 40 ------- 0 15.65 1.603 0 1650
+ 0.069674 0 1 tcp 40 ------- 0 15.1372 21.811 0 1665
- 0.069674 0 1 tcp 40 ------- 0 15.1372 21.811 0 1665
r 0.069873 0 1 ack 40 ------- 0 0.50 1.50 37 1962
+ 0.070279 0 1 ack 40 ------- 0 0.83 1.83 1 2055
- 0.070279 0 1 ack 40 ------- 0 0.83 1.83 1 2055
r 0.071105 0 1 ack 40 ------- 0 0.50 1.50 38 2013
+ 0.071511 0 1 ack 40 ------- 0 0.83 1.83 2 2104
- 0.071511 0 1 ack 40 ------- 0 0.83 1.83 2 2104
r 0.0717 0 1 tcp 40 ------- 0 15.65 1.603 0 1650
r 0.071764 0 1 tcp 40 ------- 0 15.1372 21.811 0 1665
r 0.072369 0 1 ack 40 ------- 0 0.83 1.83 1 2055
+ 0.072565 0 1 tcp 1540 ------- 0 0.1382 21.527 3 2147
- 0.072565 0 1 tcp 1540 ------- 0 0.1382 21.527 3 2147
+ 0.072565 0 1 tcp 1540 ------- 0 0.1382 21.527 4 2148
+ 0.072743 0 1 ack 40 ------- 0 0.50 1.50 39 2149
+ 0.073498 0 1 tcp 1540 ------- 0 4.1266 21.605 1 1844
r 0.073601 0 1 ack 40 ------- 0 0.83 1.83 2 2104
- 0.073797 0 1 tcp 1540 ------- 0 0.1382 21.527 4 2148
+ 0.074007 0 1 ack 40 ------- 0 0.50 1.50 40 2188
+ 0.07473 0 1 tcp 1540 ------- 0 4.1266 21.605 2 1845
+ 0.07501 0 1 ack 40 ------- 0 18.974 21.383 0 1499
- 0.075029 0 1 ack 40 ------- 0 0.50 1.50 39 2149
- 0.075061 0 1 tcp 1540 ------- 0 4.1266 21.605 1 1844
+ 0.075138 0 1 tcp 40 ------- 0 18.28 1.752 0 1587
+ 0.075303 0 1 ack 40 ------- 0 0.396 16.4 0 2226
r 0.075856 0 1 tcp 1540 ------- 0 0.1382 21.527 3 2147
+ 0.075962 0 1 tcp 1540 ------- 0 4.1298 21.637 1 1847
- 0.076293 0 1 ack 40 ------- 0 0.50 1.50 40 2188
- 0.076325 0 1 tcp 1540 ------- 0 4.1266 21.605 2 1845
+ 0.076567 0 1 ack 40 ------- 0 0.50 1.50 41 2262
r 0.077088 0 1 tcp 1540 ------- 0 0.1382 21.527 4 2148
r 0.07712 0 1 ack 40 ------- 0 0.50 1.50 39 2149
+ 0.077194 0 1 tcp 1540 ------- 0 4.1298 21.637 2 1848
+ 0.077493 0 1 tcp 1540 ------- 0 0.1382 21.527 5 2303
+ 0.077493 0 1 tcp 1540 ------- 0 0.1382 21.527 6 2304
- 0.077557 0 1 ack 40 ------- 0 18.974 21.383 0 1499
- 0.077589 0 1 tcp 40 ------- 0 18.28 1.752 0 1587
- 0.077621 0 1 ack 40 ------- 0 0.396 16.4 0 2226
- 0.077653 0 1 tcp 1540 ------- 0 4.1298 21.637 1 1847
+ 0.077895 0 1 ack 40 ------- 0 0.50 1.50 42 2311
r 0.078352 0 1 tcp 1540 ------- 0 4.1266 21.605 1 1844
r 0.078384 0 1 ack 40 ------- 0 0.50 1.50 40 2188
- 0.078885 0 1 ack 40 ------- 0 0.50 1.50 41 2262
- 0.078917 0 1 tcp 1540 ------- 0 4.1298 21.637 2 1848
+ 0.079127 0 1 ack 40 ------- 0 0.35 1.35 1 2361
r 0.079616 0 1 tcp 1540 ------- 0 4.1266 21.605 2 1845
r 0.079648 0 1 ack 40 ------- 0 18.974 21.383 0 1499
r 0.07968 0 1 tcp 40 ------- 0 18.28 1.752 0 1587
r 0.079712 0 1 ack 40 ------- 0 0.396 16.4 0 2226
- 0.080149 0 1 tcp 1540 ------- 0 0.1382 21.527 5 2303
+ 0.080359 0 1 ack 40 ------- 0 0.35 1.35 2 2404
+ 0.08045 0 1 tcp 40 ------- 0 17.63 1.726 0 1948
r 0.080944 0 1 tcp 1540 ------- 0 4.1298 21.637 1 1847
r 0.080976 0 1 ack 40 ------- 0 0.50 1.50 41 2262
- 0.081381 0 1 tcp 1540 ------- 0 0.1382 21.527 6 2304
r 0.082208 0 1 tcp 1540 ------- 0 4.1298 21.637 2 1848
+ 0.082218 0 1 ack 40 ------- 0 4.593 16.158 1 1987
- 0.082613 0 1 ack 40 ------- 0 0.50 1.50 42 2311
- 0.082645 0 1 ack 40 ------- 0 0.35 1.35 1 2361
- 0.082677 0 1 ack 40 ------- 0 0.35 1.35 2 2404
- 0.082709 0 1 tcp 40 ------- 0 17.63 1.726 0 1948
- 0.082741 0 1 ack 40 ------- 0 4.593 16.158 1 1987
r 0.08344 0 1 tcp 1540 ------- 0 0.1382 21.527 5 2303
+ 0.083877 0 1 ack 40 ------- 0 0.482 21.8 3 2519
- 0.083877 0 1 ack 40 ------- 0 0.482 21.8 3 2519
+ 0.084055 0 1 ack 40 ------- 0 0.50 1.50 43 2525
- 0.084055 0 1 ack 40 ------- 0 0.50 1.50 43 2525
r 0.084672 0 1 tcp 1540 ------- 0 0.1382 21.527 6 2304
r 0.084704 0 1 ack 40 ------- 0 0.50 1.50 42 2311
r 0.084736 0 1 ack 40 ------- 0 0.35 1.35 1 2361
r 0.084768 0 1 ack 40 ------- 0 0.35 1.35 2 2404
r 0.0848 0 1 tcp 40 ------- 0 17.63 1.726 0 1948
r 0.084832 0 1 ack 40 ------- 0 4.593 16.158 1 1987
+ 0.085287 0 1 ack 40 ------- 0 0.50 1.50 44 2565
- 0.085287 0 1 ack 40 ------- 0 0.50 1.50 44 2565
r 0.085968 0 1 ack 40 ------- 0 0.482 21.8 3 2519
r 0.086145 0 1 ack 40 ------- 0 0.50 1.50 43 2525
+ 0.086519 0 1 ack 40 ------- 0 0.50 1.50 45 2614
- 0.086519 0 1 ack 40 ------- 0 0.50 1.50 45 2614
+ 0.087071 0 1 tcp 40 ------- 0 3.910 6.323 0 2418
- 0.087071 0 1 tcp 40 ------- 0 3.910 6.323 0 2418
+ 0.087178 0 1 tcp 1540 ------- 0 15.1371 21.810 1 1831
- 0.087178 0 1 tcp 1540 ------- 0 15.1371 21.810 1 1831
r 0.087377 0 1 ack 40 ------- 0 0.50 1.50 44 2565
+ 0.087751 0 1 ack 40 ------- 0 0.50 1.50 46 2651
- 0.08841 0 1 ack 40 ------- 0 0.50 1.50 46 2651
r 0.088609 0 1 ack 40 ------- 0 0.50 1.50 45 2614
+ 0.088805 0 1 ack 40 ------- 0 0.482 21.8 4 2691
- 0.088805 0 1 ack 40 ------- 0 0.482 21.8 4 2691
+ 0.088983 0 1 ack 40 ------- 0 0.50 1.50 47 2694
- 0.088983 0 1 ack 40 ------- 0 0.50 1.50 47 2694
r 0.089161 0 1 tcp 40 ------- 0 3.910 6.323 0 2418
+ 0.090247 0 1 ack 40 ------- 0 0.50 1.50 48 2744
- 0.090247 0 1 ack 40 ------- 0 0.50 1.50 48 2744
r 0.090468 0 1 tcp 1540 ------- 0 15.1371 21.810 1 1831
r 0.0905 0 1 ack 40 ------- 0 0.50 1.50 46 2651
r 0.090896 0 1 ack 40 ------- 0 0.482 21.8 4 2691
r 0.091073 0 1 ack 40 ------- 0 0.50 1.50 47 2694
+ 0.091479 0 1 ack 40 ------- 0 0.50 1.50 49 2781
- 0.091479 0 1 ack 40 ------- 0 0.50 1.50 49 2781
+ 0.092138 0 1 tcp 1540 ------- 0 15.1371 21.810 2 1832
- 0.092138 0 1 tcp 1540 ------- 0 15.1371 21.810 2 1832
r 0.092337 0 1 ack 40 ------- 0 0.50 1.50 48 2744
+ 0.092711 0 1 ack 40 ------- 0 0.50 1.50 50 2811
- 0.09337 0 1 ack 40 ------- 0 0.50 1.50 50 2811
r 0.093569 0 1 ack 40 ------- 0 0.50 1.50 49 2781
+ 0.094666 0 1 ack 40 ------- 0 15.565 1.1582 0 1863
- 0.094666 0 1 ack 40 ------- 0 15.565 1.1582 0 1863
+ 0.094904 0 1 tcp 1540 ------- 0 3.1204 16.502 1 2634
- 0.094904 0 1 tcp 1540 ------- 0 3.1204 16.502 1 2634
+ 0.095175 0 1 ack 40 ------- 0 0.50 1.50 51 2873
r 0.095428 0 1 tcp 1540 ------- 0 15.1371 21.810 2 1832
r 0.09546 0 1 ack 40 ------- 0 0.50 1.50 50 2811
+ 0.095803 0 1 tcp 40 ------- 0 0.662 1.156 0 2900
+ 0.096136 0 1 tcp 1540 ------- 0 3.1204 16.502 2 2635
- 0.096136 0 1 ack 40 ------- 0 0.50 1.50 51 2873
- 0.096168 0 1 tcp 40 ------- 0 0.662 1.156 0 2900
+ 0.0962 0 1 tcp 40 ------- 0 3.893 6.306 0 2642
- 0.0962 0 1 tcp 1540 ------- 0 3.1204 16.502 2 2635
+ 0.096232 0 1 ack 40 ------- 0 3.95 1.1088 1 2701
+ 0.096407 0 1 ack 40 ------- 0 0.50 1.50 52 2916
+ 0.096439 0 1 ack 40 ------- 0 0.23 1.23 0 2918
r 0.096756 0 1 ack 40 ------- 0 15.565 1.1582 0 1863
+ 0.097194 0 1 tcp 1540 ------- 0 15.63 1.601 1 1901
- 0.097432 0 1 tcp 40 ------- 0 3.893 6.306 0 2642
- 0.097464 0 1 ack 40 ------- 0 3.95 1.1088 1 2701
- 0.097496 0 1 ack 40 ------- 0 0.50 1.50 52 2916
- 0.097528 0 1 ack 40 ------- 0 0.23 1.23 0 2918
- 0.09756 0 1 tcp 1540 ------- 0 15.63 1.601 1 1901
+ 0.097703 0 1 ack 40 ------- 0 0.50 1.50 53 2961
r 0.098194 0 1 tcp 1540 ------- 0 3.1204 16.502 1 2634
r 0.098226 0 1 ack 40 ------- 0 0.50 1.50 51 2873
r 0.098258 0 1 tcp 40 ------- 0 0.662 1.156 0 2900
+ 0.098786 0 1 tcp 40 ------- 0 3.902 6.315 0 2805
- 0.098792 0 1 ack 40 ------- 0 0.50 1.50 53 2961
- 0.098824 0 1 tcp 40 ------- 0 3.902 6.315 0 2805
+ 0.099166 0 1 ack 40 ------- 0 3.95 1.1088 2 2816
- 0.099166 0 1 ack 40 ------- 0 3.95 1.1088 2 2816
r 0.09949 0 1 tcp 1540 ------- 0 3.1204 16.502 2 2635
r 0.099522 0 1 tcp 40 ------- 0 3.893 6.306 0 2642
r 0.099554 0 1 ack 40 ------- 0 3.95 1.1088 1 2701
r 0.099586 0 1 ack 40 ------- 0 0.50 1.50 52 2916
r 0.099618 0 1 ack 40 ------- 0 0.23 1.23 0 2918
+ 0.09969 0 1 tcp 1540 ------- 0 15.63 1.601 2 1902
- 0.09969 0 1 tcp 1540 ------- 0 15.63 1.601 2 1902
r 0.10085 0 1 tcp 1540 ------- 0 15.63 1.601 1 1901
r 0.100882 0 1 ack 40 ------- 0 0.50 1.50 53 2961
r 0.100914 0 1 tcp 40 ------- 0 3.902 6.315 0 2805
r 0.101257 0 1 ack 40 ------- 0 3.95 1.1088 2 2816
+ 0.101399 0 1 ack 40 ------- 0 0.50 1.50 54 3098
- 0.101399 0 1 ack 40 ------- 0 0.50 1.50 54 3098
+ 0.101707 0 1 ack 40 ------- 0 11.387 1.1287 0 1623
- 0.101707 0 1 ack 40 ------- 0 11.387 1.1287 0 1623
+ 0.101803 0 1 ack 40 ------- 0 2.648 21.108 0 1828
- 0.101803 0 1 ack 40 ------- 0 2.648 21.108 0 1828
+ 0.102474 0 1 ack 40 ------- 0 4.593 16.158 2 2357
- 0.102474 0 1 ack 40 ------- 0 4.593 16.158 2 2357
+ 0.102506 0 1 ack 40 ------- 0 4.194 1.1201 0 2359
- 0.102506 0 1 ack 40 ------- 0 4.194 1.1201 0 2359
r 0.10298 0 1 tcp 1540 ------- 0 15.63 1.601 2 1902
r 0.103489 0 1 ack 40 ------- 0 0.50 1.50 54 3098
+ 0.103717 0 1 ack 40 ------- 0 0.482 21.8 5 3179
- 0.103717 0 1 ack 40 ------- 0 0.482 21.8 5 3179
r 0.103798 0 1 ack 40 ------- 0 11.387 1.1287 0 1623
r 0.103894 0 1 ack 40 ------- 0 2.648 21.108 0 1828
r 0.104564 0 1 ack 40 ------- 0 4.593 16.158 2 2357
r 0.104596 0 1 ack 40 ------- 0 4.194 1.1201 0 2359
+ 0.105034 0 1 tcp 1540 ------- 0 4.1313 21.652 1 2397
- 0.105034 0 1 tcp 1540 ------- 0 4.1313 21.652 1 2397
r 0.105808 0 1 ack 40 ------- 0 0.482 21.8 5 3179
+ 0.106266 0 1 tcp 1540 ------- 0 4.1313 21.652 2 2398
- 0.106266 0 1 tcp 1540 ------- 0 4.1313 21.652 2 2398
+ 0.106327 0 1 ack 40 ------- 0 0.50 1.50 55 3271
- 0.107498 0 1 ack 40 ------- 0 0.50 1.50 55 3271
r 0.108324 0 1 tcp 1540 ------- 0 4.1313 21.652 1 2397
+ 0.108645 0 1 ack 40 ------- 0 0.482 21.8 6 3336
- 0.108645 0 1 ack 40 ------- 0 0.482 21.8 6 3336
r 0.109556 0 1 tcp 1540 ------- 0 4.1313 21.652 2 2398
r 0.109588 0 1 ack 40 ------- 0 0.50 1.50 55 3271
r 0.110736 0 1 ack 40 ------- 0 0.482 21.8 6 3336
+ 0.111883 0 1 tcp 40 ------- 0 2.832 6.274 0 2214
- 0.111883 0 1 tcp 40 ------- 0 2.832 6.274 0 2214
+ 0.112487 0 1 ack 40 ------- 0 0.50 1.50 56 3464
- 0.112487 0 1 ack 40 ------- 0 0.50 1.50 56 3464
+ 0.113573 0 1 ack 40 ------- 0 0.503 21.29 1 3492
- 0.113573 0 1 ack 40 ------- 0 0.503 21.29 1 3492
r 0.113974 0 1 tcp 40 ------- 0 2.832 6.274 0 2214
r 0.114577 0 1 ack 40 ------- 0 0.50 1.50 56 3464
+ 0.114742 0 1 tcp 40 ------- 0 19.1228 24.954 0 3410
- 0.114742 0 1 tcp 40 ------- 0 19.1228 24.954 0 3410
+ 0.115611 0 1 ack 40 ------- 0 2.256 6.101 0 2327
- 0.115611 0 1 ack 40 ------- 0 2.256 6.101 0 2327
r 0.115664 0 1 ack 40 ------- 0 0.503 21.29 1 3492
+ 0.116204 0 1 ack 40 ------- 0 0.50 1.50 57 3560
- 0.116204 0 1 ack 40 ------- 0 0.50 1.50 57 3560
+ 0.116414 0 1 ack 40 ------- 0 3.508 16.61 1 3379
- 0.116414 0 1 ack 40 ------- 0 3.508 16.61 1 3379
r 0.116832 0 1 tcp 40 ------- 0 19.1228 24.954 0 3410
+ 0.117436 0 1 ack 40 ------- 0 0.50 1.50 58 3589
- 0.117436 0 1 ack 40 ------- 0 0.50 1.50 58 3589
r 0.117702 0 1 ack 40 ------- 0 2.256 6.101 0 2327
r 0.118294 0 1 ack 40 ------- 0 0.50 1.50 57 3560
+ 0.118501 0 1 ack 40 ------- 0 0.503 21.29 2 3618
- 0.118501 0 1 ack 40 ------- 0 0.503 21.29 2 3618
r 0.118505 0 1 ack 40 ------- 0 3.508 16.61 1 3379
+ 0.118668 0 1 ack 40 ------- 0 0.83 1.83 3 3626
- 0.118668 0 1 ack 40 ------- 0 0.83 1.83 3 3626
+ 0.11891 0 1 ack 40 ------- 0 3.101 1.1094 0 3468
- 0.11891 0 1 ack 40 ------- 0 3.101 1.1094 0 3468
r 0.119526 0 1 ack 40 ------- 0 0.50 1.50 58 3589
+ 0.1199 0 1 ack 40 ------- 0 0.83 1.83 4 3667
- 0.1199 0 1 ack 40 ------- 0 0.83 1.83 4 3667
+ 0.120571 0 1 tcp 40 ------- 0 2.1234 24.640 0 2524
- 0.120571 0 1 tcp 40 ------- 0 2.1234 24.640 0 2524
r 0.120592 0 1 ack 40 ------- 0 0.503 21.29 2 3618
r 0.120758 0 1 ack 40 ------- 0 0.83 1.83 3 3626
r 0.121001 0 1 ack 40 ------- 0 3.101 1.1094 0 3468
+ 0.121132 0 1 ack 40 ------- 0 0.83 1.83 5 3708
- 0.121132 0 1 ack 40 ------- 0 0.83 1.83 5 3708
r 0.12199 0 1 ack 40 ------- 0 0.83 1.83 4 3667
+ 0.122364 0 1 ack 40 ------- 0 0.83 1.83 6 3750
- 0.122364 0 1 ack 40 ------- 0 0.83 1.83 6 3750
r 0.122662 0 1 tcp 40 ------- 0 2.1234 24.640 0 2524
r 0.123222 0 1 ack 40 ------- 0 0.83 1.83 5 3708
+ 0.123596 0 1 ack 40 ------- 0 0.50 1.50 59 3787
- 0.123596 0 1 ack 40 ------- 0 0.50 1.50 59 3787
r 0.124454 0 1 ack 40 ------- 0 0.83 1.83 6 3750
+ 0.124881 0 1 ack 40 ------- 0 0.50 1.50 60 3839
- 0.124881 0 1 ack 40 ------- 0 0.50 1.50 60 3839
+ 0.125162 0 1 tcp 40 ------- 0 5.1457 16.570 0 2778
- 0.125162 0 1 tcp 40 ------- 0 5.1457 16.570 0 2778
+ 0.125322 0 1 ack 40 ------- 0 4.134 1.1141 7 3149
- 0.125322 0 1 ack 40 ------- 0 4.134 1.1141 7 3149
r 0.125686 0 1 ack 40 ------- 0 0.50 1.50 59 3787
+ 0.126165 0 1 ack 40 ------- 0 0.50 1.50 61 3888
- 0.126165 0 1 ack 40 ------- 0 0.50 1.50 61 3888
+ 0.126746 0 1 ack 40 ------- 0 4.134 1.1141 8 3186
- 0.126746 0 1 ack 40 ------- 0 4.134 1.1141 8 3186
r 0.126971 0 1 ack 40 ------- 0 0.50 1.50 60 3839
r 0.127252 0 1 tcp 40 ------- 0 5.1457 16.570 0 2778
r 0.127412 0 1 ack 40 ------- 0 4.134 1.1141 7 3149
+ 0.127429 0 1 ack 40 ------- 0 0.50 1.50 62 3942
- 0.127429 0 1 ack 40 ------- 0 0.50 1.50 62 3942
+ 0.127534 0 1 ack 40 ------- 0 3.508 16.61 2 3711
- 0.127534 0 1 ack 40 ------- 0 3.508 16.61 2 3711
r 0.128256 0 1 ack 40 ------- 0 0.50 1.50 61 3888
+ 0.128661 0 1 ack 40 ------- 0 0.35 1.35 3 3973
- 0.128661 0 1 ack 40 ------- 0 0.35 1.35 3 3973
r 0.128836 0 1 ack 40 ------- 0 4.134 1.1141 8 3186
+ 0.129426 0 1 ack 40 ------- 0 18.396 6.1313 0 3467
- 0.129426 0 1 ack 40 ------- 0 18.396 6.1313 0 3467
r 0.12952 0 1 ack 40 ------- 0 0.50 1.50 62 3942
+ 0.129554 0 1 tcp 40 ------- 0 17.470 16.748 0 3499
- 0.129554 0 1 tcp 40 ------- 0 17.470 16.748 0 3499
r 0.129625 0 1 ack 40 ------- 0 3.508 16.61 2 3711
+ 0.129682 0 1 tcp 40 ------- 0 17.223 6.729 0 3781
- 0.129682 0 1 tcp 40 ------- 0 17.223 6.729 0 3781
+ 0.129893 0 1 ack 40 ------- 0 0.35 1.35 4 4009
- 0.129893 0 1 ack 40 ------- 0 0.35 1.35 4 4009
r 0.130752 0 1 ack 40 ------- 0 0.35 1.35 3 3973
+ 0.131125 0 1 ack 40 ------- 0 0.35 1.35 5 4050
- 0.131125 0 1 ack 40 ------- 0 0.35 1.35 5 4050
r 0.131516 0 1 ack 40 ------- 0 18.396 6.1313 0 3467
r 0.131644 0 1 tcp 40 ------- 0 17.470 16.748 0 3499
r 0.131772 0 1 tcp 40 ------- 0 17.223 6.729 0 3781
r 0.131984 0 1 ack 40 ------- 0 0.35 1.35 4 4009
+ 0.132357 0 1 ack 40 ------- 0 0.35 1.35 6 4081
- 0.132357 0 1 ack 40 ------- 0 0.35 1.35 6 4081
r 0.133216 0 1 ack 40 ------- 0 0.35 1.35 5 4050
+ 0.133621 0 1 ack 40 ------- 0 0.50 1.50 63 4121
- 0.133621 0 1 ack 40 ------- 0 0.50 1.50 63 4121
+ 0.13379 0 1 tcp 40 ------- 0 3.1464 24.684 0 3896
- 0.13379 0 1 tcp 40 ------- 0 3.1464 24.684 0 3896
+ 0.134444 0 1 tcp 40 ------- 0 3.1229 16.527 0 3960
- 0.134444 0 1 tcp 40 ------- 0 3.1229 16.527 0 3960
r 0.134448 0 1 ack 40 ------- 0 0.35 1.35 6 4081
+ 0.134853 0 1 ack 40 ------- 0 0.50 1.50 64 4162
- 0.134853 0 1 ack 40 ------- 0 0.50 1.50 64 4162
r 0.135712 0 1 ack 40 ------- 0 0.50 1.50 63 4121
r 0.135881 0 1 tcp 40 ------- 0 3.1464 24.684 0 3896
+ 0.136085 0 1 ack 40 ------- 0 0.50 1.50 65 4203
- 0.136085 0 1 ack 40 ------- 0 0.50 1.50 65 4203
r 0.136534 0 1 tcp 40 ------- 0 3.1229 16.527 0 3960
r 0.136944 0 1 ack 40 ------- 0 0.50 1.50 64 4162
+ 0.137349 0 1 ack 40 ------- 0 0.50 1.50 66 4233
- 0.137349 0 1 ack 40 ------- 0 0.50 1.50 66 4233
+ 0.137486 0 1 tcp 1540 ------- 0 0.1382 21.527 7 4240
- 0.137486 0 1 tcp 1540 ------- 0 0.1382 21.527 7 4240
+ 0.137486 0 1 tcp 1540 ------- 0 0.1382 21.527 8 4241
+ 0.137979 0 1 tcp 40 ------- 0 2.810 6.252 0 2935
+ 0.138122 0 1 ack 40 ------- 0 4.134 1.1141 8 3660
r 0.138176 0 1 ack 40 ------- 0 0.50 1.50 65 4203
+ 0.138186 0 1 ack 40 ------- 0 4.134 1.1141 8 3696
+ 0.138581 0 1 ack 40 ------- 0 0.50 1.50 67 4267
- 0.138718 0 1 tcp 1540 ------- 0 0.1382 21.527 8 4241
+ 0.139275 0 1 tcp 40 ------- 0 2.811 6.253 0 3019
r 0.13944 0 1 ack 40 ------- 0 0.50 1.50 66 4233
+ 0.139813 0 1 ack 40 ------- 0 0.50 1.50 68 4311
+ 0.139922 0 1 tcp 40 ------- 0 17.1348 21.893 0 3971
- 0.13995 0 1 tcp 40 ------- 0 2.810 6.252 0 2935
- 0.139982 0 1 ack 40 ------- 0 4.134 1.1141 8 3660
- 0.140014 0 1 ack 40 ------- 0 4.134 1.1141 8 3696
- 0.140046 0 1 ack 40 ------- 0 0.50 1.50 67 4267
- 0.140078 0 1 tcp 40 ------- 0 2.811 6.253 0 3019
- 0.14011 0 1 ack 40 ------- 0 0.50 1.50 68 4311
- 0.140142 0 1 tcp 40 ------- 0 17.1348 21.893 0 3971
+ 0.140178 0 1 tcp 40 ------- 0 17.1397 24.933 0 4084
- 0.140178 0 1 tcp 40 ------- 0 17.1397 24.933 0 4084
+ 0.140306 0 1 tcp 40 ------- 0 18.31 1.755 0 4061
- 0.140306 0 1 tcp 40 ------- 0 18.31 1.755 0 4061