+ 0.002249 1 16 rtProtoDV 26 ------- 0 1.2013 16.1129 -1 25
- 0.002249 1 16 rtProtoDV 26 ------- 0 1.2013 16.1129 -1 25
r 0.005105 1 16 rtProtoDV 26 ------- 0 1.2013 16.1129 -1 25
+ 0.005575 1 16 rtProtoDV 26 ------- 0 1.2013 16.1129 -1 103
- 0.005575 1 16 rtProtoDV 26 ------- 0 1.2013 16.1129 -1 103
+ 0.0072 1 16 rtProtoDV 26 ------- 0 1.2013 16.1129 -1 161
- 0.0072 1 16 rtProtoDV 26 ------- 0 1.2013 16.1129 -1 161
+ 0.007769 1 16 rtProtoDV 26 ------- 0 1.2013 16.1129 -1 191
- 0.007769 1 16 rtProtoDV 26 ------- 0 1.2013 16.1129 -1 191
+ 0.00802 1 16 rtProtoDV 26 ------- 0 1.2013 16.1129 -1 210
- 0.00802 1 16 rtProtoDV 26 ------- 0 1.2013 16.1129 -1 210
r 0.008431 1 16 rtProtoDV 26 ------- 0 1.2013 16.1129 -1 103
r 0.010055 1 16 rtProtoDV 26 ------- 0 1.2013 16.1129 -1 161
+ 0.010239 1 16 rtProtoDV 26 ------- 0 1.2013 16.1129 -1 303
- 0.010239 1 16 rtProtoDV 26 ------- 0 1.2013 16.1129 -1 303
r 0.010624 1 16 rtProtoDV 26 ------- 0 1.2013 16.1129 -1 191
r 0.010876 1 16 rtProtoDV 26 ------- 0 1.2013 16.1129 -1 210
+ 0.012991 1 16 rtProtoDV 26 ------- 0 1.2013 16.1129 -1 468
- 0.012991 1 16 rtProtoDV 26 ------- 0 1.2013 16.1129 -1 468
r 0.013095 1 16 rtProtoDV 26 ------- 0 1.2013 16.1129 -1 303
r 0.015847 1 16 rtProtoDV 26 ------- 0 1.2013 16.1129 -1 468
+ 0.016623 1 16 rtProtoDV 26 ------- 0 1.2013 16.1129 -1 614
- 0.016623 1 16 rtProtoDV 26 ------- 0 1.2013 16.1129 -1 614
+ 0.016898 1 16 rtProtoDV 26 ------- 0 1.2013 16.1129 -1 634
- 0.016898 1 16 rtProtoDV 26 ------- 0 1.2013 16.1129 -1 634
+ 0.018751 1 16 rtProtoDV 26 ------- 0 1.2013 16.1129 -1 703
- 0.018751 1 16 rtProtoDV 26 ------- 0 1.2013 16.1129 -1 703
+ 0.019138 1 16 rtProtoDV 26 ------- 0 1.2013 16.1129 -1 716
- 0.019138 1 16 rtProtoDV 26 ------- 0 1.2013 16.1129 -1 716
+ 0.019363 1 16 rtProtoDV 26 ------- 0 1.2013 16.1129 -1 732
- 0.019363 1 16 rtProtoDV 26 ------- 0 1.2013 16.1129 -1 732
r 0.019479 1 16 rtProtoDV 26 ------- 0 1.2013 16.1129 -1 614
r 0.019753 1 16 rtProtoDV 26 ------- 0 1.2013 16.1129 -1 634
r 0.021607 1 16 rtProtoDV 26 ------- 0 1.2013 16.1129 -1 703
r 0.021994 1 16 rtProtoDV 26 ------- 0 1.2013 16.1129 -1 716
r 0.022219 1 16 rtProtoDV 26 ------- 0 1.2013 16.1129 -1 732
+ 0.022957 1 16 rtProtoDV 26 ------- 0 1.2013 16.1129 -1 829
- 0.022957 1 16 rtProtoDV 26 ------- 0 1.2013 16.1129 -1 829
+ 0.024722 1 16 ack 40 ------- 0 4.593 16.158 0 749
- 0.024722 1 16 ack 40 ------- 0 4.593 16.158 0 749
r 0.025813 1 16 rtProtoDV 26 ------- 0 1.2013 16.1129 -1 829
r 0.027622 1 16 ack 40 ------- 0 4.593 16.158 0 749
+ 0.028138 1 16 tcp 40 ------- 0 3.1204 16.502 0 743
- 0.028138 1 16 tcp 40 ------- 0 3.1204 16.502 0 743
r 0.031038 1 16 tcp 40 ------- 0 3.1204 16.502 0 743
+ 0.036257 1 16 tcp 40 ------- 0 14.1305 16.694 0 877
- 0.036257 1 16 tcp 40 ------- 0 14.1305 16.694 0 877
+ 0.039039 1 16 ack 40 ------- 0 6.723 16.216 0 1005
- 0.039039 1 16 ack 40 ------- 0 6.723 16.216 0 1005
r 0.039158 1 16 tcp 40 ------- 0 14.1305 16.694 0 877
r 0.041939 1 16 ack 40 ------- 0 6.723 16.216 0 1005
+ 0.050297 1 16 ack 40 ------- 0 3.508 16.61 0 1273
- 0.050297 1 16 ack 40 ------- 0 3.508 16.61 0 1273
r 0.053197 1 16 ack 40 ------- 0 3.508 16.61 0 1273
+ 0.055953 1 16 tcp 40 ------- 0 20.589 16.826 0 979
- 0.055953 1 16 tcp 40 ------- 0 20.589 16.826 0 979
r 0.058854 1 16 tcp 40 ------- 0 20.589 16.826 0 979
+ 0.067976 1 16 ack 40 ------- 0 6.723 16.216 1 1737
- 0.067976 1 16 ack 40 ------- 0 6.723 16.216 1 1737
+ 0.068804 1 16 ack 40 ------- 0 21.867 16.1096 0 1489
- 0.068804 1 16 ack 40 ------- 0 21.867 16.1096 0 1489
+ 0.069063 1 16 rtProtoDV 26 ------- 0 1.2013 16.1129 -1 2016
- 0.069063 1 16 rtProtoDV 26 ------- 0 1.2013 16.1129 -1 2016
r 0.070877 1 16 ack 40 ------- 0 6.723 16.216 1 1737
r 0.071705 1 16 ack 40 ------- 0 21.867 16.1096 0 1489
r 0.071919 1 16 rtProtoDV 26 ------- 0 1.2013 16.1129 -1 2016
+ 0.072904 1 16 ack 40 ------- 0 6.723 16.216 2 1873
- 0.072904 1 16 ack 40 ------- 0 6.723 16.216 2 1873
r 0.075805 1 16 ack 40 ------- 0 6.723 16.216 2 1873
+ 0.078163 1 16 rtProtoDV 26 ------- 0 1.2013 16.1129 -1 2323
- 0.078163 1 16 rtProtoDV 26 ------- 0 1.2013 16.1129 -1 2323
+ 0.079712 1 16 ack 40 ------- 0 0.396 16.4 0 2226
- 0.079712 1 16 ack 40 ------- 0 0.396 16.4 0 2226
+ 0.080428 1 16 rtProtoDV 26 ------- 0 1.2013 16.1129 -1 2409
- 0.080428 1 16 rtProtoDV 26 ------- 0 1.2013 16.1129 -1 2409
r 0.081019 1 16 rtProtoDV 26 ------- 0 1.2013 16.1129 -1 2323
r 0.082612 1 16 ack 40 ------- 0 0.396 16.4 0 2226
r 0.083284 1 16 rtProtoDV 26 ------- 0 1.2013 16.1129 -1 2409
+ 0.084832 1 16 ack 40 ------- 0 4.593 16.158 1 1987
- 0.084832 1 16 ack 40 ------- 0 4.593 16.158 1 1987
r 0.087732 1 16 ack 40 ------- 0 4.593 16.158 1 1987
+ 0.096914 1 16 ack 40 ------- 0 6.723 16.216 3 2680
- 0.096914 1 16 ack 40 ------- 0 6.723 16.216 3 2680
+ 0.098194 1 16 tcp 1540 ------- 0 3.1204 16.502 1 2634
- 0.098194 1 16 tcp 1540 ------- 0 3.1204 16.502 1 2634
+ 0.09949 1 16 tcp 1540 ------- 0 3.1204 16.502 2 2635
r 0.099814 1 16 ack 40 ------- 0 6.723 16.216 3 2680
+ 0.101842 1 16 ack 40 ------- 0 6.723 16.216 4 2832
- 0.103122 1 16 tcp 1540 ------- 0 3.1204 16.502 2 2635
+ 0.104564 1 16 ack 40 ------- 0 4.593 16.158 2 2357
r 0.105895 1 16 tcp 1540 ------- 0 3.1204 16.502 1 2634
- 0.10805 1 16 ack 40 ------- 0 6.723 16.216 4 2832
- 0.108178 1 16 ack 40 ------- 0 4.593 16.158 2 2357
r 0.110823 1 16 tcp 1540 ------- 0 3.1204 16.502 2 2635
r 0.110951 1 16 ack 40 ------- 0 6.723 16.216 4 2832
r 0.111079 1 16 ack 40 ------- 0 4.593 16.158 2 2357
+ 0.116709 1 16 ack 40 ------- 0 6.723 16.216 5 3322
- 0.116709 1 16 ack 40 ------- 0 6.723 16.216 5 3322
+ 0.118505 1 16 ack 40 ------- 0 3.508 16.61 1 3379
- 0.118505 1 16 ack 40 ------- 0 3.508 16.61 1 3379
r 0.11961 1 16 ack 40 ------- 0 6.723 16.216 5 3322
r 0.121405 1 16 ack 40 ------- 0 3.508 16.61 1 3379
+ 0.121637 1 16 ack 40 ------- 0 6.723 16.216 6 3482
- 0.121637 1 16 ack 40 ------- 0 6.723 16.216 6 3482
r 0.124538 1 16 ack 40 ------- 0 6.723 16.216 6 3482
+ 0.127252 1 16 tcp 40 ------- 0 5.1457 16.570 0 2778
- 0.127252 1 16 tcp 40 ------- 0 5.1457 16.570 0 2778
+ 0.128535 1 16 ack 40 ------- 0 21.863 16.1092 0 2526
- 0.128535 1 16 ack 40 ------- 0 21.863 16.1092 0 2526
+ 0.129625 1 16 ack 40 ------- 0 3.508 16.61 2 3711
- 0.129625 1 16 ack 40 ------- 0 3.508 16.61 2 3711
r 0.130153 1 16 tcp 40 ------- 0 5.1457 16.570 0 2778
r 0.131436 1 16 ack 40 ------- 0 21.863 16.1092 0 2526
+ 0.131644 1 16 tcp 40 ------- 0 17.470 16.748 0 3499
- 0.131644 1 16 tcp 40 ------- 0 17.470 16.748 0 3499
r 0.132525 1 16 ack 40 ------- 0 3.508 16.61 2 3711
r 0.134545 1 16 tcp 40 ------- 0 17.470 16.748 0 3499
+ 0.136534 1 16 tcp 40 ------- 0 3.1229 16.527 0 3960
- 0.136534 1 16 tcp 40 ------- 0 3.1229 16.527 0 3960
r 0.139435 1 16 tcp 40 ------- 0 3.1229 16.527 0 3960
+ 0.141193 1 16 tcp 40 ------- 0 20.593 16.830 0 2508
- 0.141193 1 16 tcp 40 ------- 0 20.593 16.830 0 2508
r 0.144094 1 16 tcp 40 ------- 0 20.593 16.830 0 2508
+ 0.148142 1 16 tcp 1540 ------- 0 20.589 16.826 1 3307
- 0.148142 1 16 tcp 1540 ------- 0 20.589 16.826 1 3307
+ 0.149424 1 16 tcp 40 ------- 0 3.1228 16.526 0 4333
+ 0.15176 1 16 tcp 1540 ------- 0 20.589 16.826 2 3308
+ 0.151792 1 16 ack 40 ------- 0 6.723 16.216 7 4384
- 0.15307 1 16 tcp 40 ------- 0 3.1228 16.526 0 4333
- 0.153198 1 16 tcp 1540 ------- 0 20.589 16.826 2 3308
r 0.155843 1 16 tcp 1540 ------- 0 20.589 16.826 1 3307
r 0.155971 1 16 tcp 40 ------- 0 3.1228 16.526 0 4333
+ 0.15688 1 16 ack 40 ------- 0 0.396 16.4 1 4789
- 0.158126 1 16 ack 40 ------- 0 6.723 16.216 7 4384
- 0.158254 1 16 ack 40 ------- 0 0.396 16.4 1 4789
+ 0.158654 1 16 ack 40 ------- 0 21.867 16.1096 1 3682
- 0.158654 1 16 ack 40 ------- 0 21.867 16.1096 1 3682
+ 0.158782 1 16 ack 40 ------- 0 21.867 16.1096 2 3868
- 0.158782 1 16 ack 40 ------- 0 21.867 16.1096 2 3868
+ 0.15903 1 16 ack 40 ------- 0 0.396 16.4 2 4879
- 0.15903 1 16 ack 40 ------- 0 0.396 16.4 2 4879
r 0.160899 1 16 tcp 1540 ------- 0 20.589 16.826 2 3308
r 0.161027 1 16 ack 40 ------- 0 6.723 16.216 7 4384
r 0.161155 1 16 ack 40 ------- 0 0.396 16.4 1 4789
r 0.161554 1 16 ack 40 ------- 0 21.867 16.1096 1 3682
r 0.161682 1 16 ack 40 ------- 0 21.867 16.1096 2 3868
r 0.16193 1 16 ack 40 ------- 0 0.396 16.4 2 4879
+ 0.165429 1 16 tcp 40 ------- 0 0.1217 16.444 0 5155
- 0.165429 1 16 tcp 40 ------- 0 0.1217 16.444 0 5155
+ 0.167212 1 16 ack 40 ------- 0 6.723 16.216 7 4624
- 0.167212 1 16 ack 40 ------- 0 6.723 16.216 7 4624
r 0.168329 1 16 tcp 40 ------- 0 0.1217 16.444 0 5155
+ 0.169804 1 16 ack 40 ------- 0 6.723 16.216 7 4764
- 0.169804 1 16 ack 40 ------- 0 6.723 16.216 7 4764
r 0.170112 1 16 ack 40 ------- 0 6.723 16.216 7 4624
r 0.172704 1 16 ack 40 ------- 0 6.723 16.216 7 4764
+ 0.17816 1 16 tcp 40 ------- 0 24.336 16.954 0 4476
- 0.17816 1 16 tcp 40 ------- 0 24.336 16.954 0 4476
+ 0.180761 1 16 tcp 40 ------- 0 3.1219 16.517 0 5331
- 0.180761 1 16 tcp 40 ------- 0 3.1219 16.517 0 5331
r 0.181061 1 16 tcp 40 ------- 0 24.336 16.954 0 4476
r 0.183662 1 16 tcp 40 ------- 0 3.1219 16.517 0 5331
+ 0.187648 1 16 ack 40 ------- 0 6.723 16.216 7 5516
- 0.187648 1 16 ack 40 ------- 0 6.723 16.216 7 5516
r 0.190549 1 16 ack 40 ------- 0 6.723 16.216 7 5516
+ 0.195283 1 16 tcp 40 ------- 0 15.1239 16.696 0 3814
- 0.195283 1 16 tcp 40 ------- 0 15.1239 16.696 0 3814
+ 0.197059 1 16 tcp 40 ------- 0 3.1215 16.513 0 6082
- 0.197059 1 16 tcp 40 ------- 0 3.1215 16.513 0 6082
r 0.198184 1 16 tcp 40 ------- 0 15.1239 16.696 0 3814
+ 0.198768 1 16 ack 40 ------- 0 6.723 16.216 7 5584
- 0.198768 1 16 ack 40 ------- 0 6.723 16.216 7 5584
r 0.19996 1 16 tcp 40 ------- 0 3.1215 16.513 0 6082
r 0.201669 1 16 ack 40 ------- 0 6.723 16.216 7 5584
+ 0.20519 1 16 ack 40 ------- 0 4.593 16.158 3 5111
- 0.20519 1 16 ack 40 ------- 0 4.593 16.158 3 5111
r 0.20809 1 16 ack 40 ------- 0 4.593 16.158 3 5111
+ 0.211574 1 16 tcp 40 ------- 0 17.456 16.734 0 5992
- 0.211574 1 16 tcp 40 ------- 0 17.456 16.734 0 5992
+ 0.212981 1 16 tcp 40 ------- 0 14.1294 16.683 0 4249
- 0.212981 1 16 tcp 40 ------- 0 14.1294 16.683 0 4249
r 0.214474 1 16 tcp 40 ------- 0 17.456 16.734 0 5992
r 0.215881 1 16 tcp 40 ------- 0 14.1294 16.683 0 4249
+ 0.222592 1 16 ack 40 ------- 0 6.723 16.216 7 6254
- 0.222592 1 16 ack 40 ------- 0 6.723 16.216 7 6254
+ 0.225277 1 16 tcp 40 ------- 0 24.330 16.948 0 6192
- 0.225277 1 16 tcp 40 ------- 0 24.330 16.948 0 6192
r 0.225493 1 16 ack 40 ------- 0 6.723 16.216 7 6254
r 0.228177 1 16 tcp 40 ------- 0 24.330 16.948 0 6192
+ 0.237316 1 16 ack 40 ------- 0 4.593 16.158 5 6717
- 0.237316 1 16 ack 40 ------- 0 4.593 16.158 5 6717
r 0.240217 1 16 ack 40 ------- 0 4.593 16.158 5 6717
+ 0.243572 1 16 ack 40 ------- 0 4.593 16.158 6 6885
- 0.243572 1 16 ack 40 ------- 0 4.593 16.158 6 6885
+ 0.243604 1 16 ack 40 ------- 0 4.560 16.125 0 6891
- 0.2437 1 16 ack 40 ------- 0 4.560 16.125 0 6891
+ 0.246164 1 16 ack 40 ------- 0 4.581 16.146 0 6930
- 0.246164 1 16 ack 40 ------- 0 4.581 16.146 0 6930
r 0.246473 1 16 ack 40 ------- 0 4.593 16.158 6 6885
r 0.246601 1 16 ack 40 ------- 0 4.560 16.125 0 6891
r 0.249065 1 16 ack 40 ------- 0 4.581 16.146 0 6930
+ 0.260416 1 16 ack 40 ------- 0 0.396 16.4 3 8526
- 0.260416 1 16 ack 40 ------- 0 0.396 16.4 3 8526
+ 0.261744 1 16 ack 40 ------- 0 0.396 16.4 4 8616
- 0.261744 1 16 ack 40 ------- 0 0.396 16.4 4 8616
r 0.263316 1 16 ack 40 ------- 0 0.396 16.4 3 8526
r 0.264644 1 16 ack 40 ------- 0 0.396 16.4 4 8616
+ 0.267168 1 16 ack 40 ------- 0 6.723 16.216 7 7176
- 0.267168 1 16 ack 40 ------- 0 6.723 16.216 7 7176
r 0.270069 1 16 ack 40 ------- 0 6.723 16.216 7 7176
+ 0.274592 1 16 ack 40 ------- 0 6.723 16.216 7 7363
- 0.274592 1 16 ack 40 ------- 0 6.723 16.216 7 7363
r 0.277493 1 16 ack 40 ------- 0 6.723 16.216 7 7363
+ 0.277696 1 16 ack 40 ------- 0 0.396 16.4 5 9138
- 0.277696 1 16 ack 40 ------- 0 0.396 16.4 5 9138
+ 0.27794 1 16 rtProtoDV 26 ------- 0 1.2013 16.1129 -1 9392
- 0.27794 1 16 rtProtoDV 26 ------- 0 1.2013 16.1129 -1 9392
r 0.280596 1 16 ack 40 ------- 0 0.396 16.4 5 9138
r 0.280796 1 16 rtProtoDV 26 ------- 0 1.2013 16.1129 -1 9392
+ 0.28755 1 16 ack 40 ------- 0 21.837 16.1066 0 5479
- 0.28755 1 16 ack 40 ------- 0 21.837 16.1066 0 5479
+ 0.287678 1 16 ack 40 ------- 0 21.871 16.1100 0 5494
- 0.287678 1 16 ack 40 ------- 0 21.871 16.1100 0 5494
r 0.29045 1 16 ack 40 ------- 0 21.837 16.1066 0 5479
r 0.290578 1 16 ack 40 ------- 0 21.871 16.1100 0 5494
+ 0.300929 1 16 tcp 40 ------- 0 24.327 16.945 0 8932
- 0.300929 1 16 tcp 40 ------- 0 24.327 16.945 0 8932
r 0.30383 1 16 tcp 40 ------- 0 24.327 16.945 0 8932
+ 0.305312 1 16 ack 40 ------- 0 3.529 16.82 0 9763
- 0.305312 1 16 ack 40 ------- 0 3.529 16.82 0 9763
+ 0.306544 1 16 tcp 1540 ---A--- 0 3.1204 16.502 1 9767
- 0.306544 1 16 tcp 1540 ---A--- 0 3.1204 16.502 1 9767
r 0.308212 1 16 ack 40 ------- 0 3.529 16.82 0 9763
+ 0.309168 1 16 tcp 1540 ------- 0 3.1219 16.517 1 10105
+ 0.3092 1 16 ack 40 ------- 0 4.605 16.170 0 9636
+ 0.310464 1 16 tcp 1540 ------- 0 3.1219 16.517 2 10106
+ 0.310496 1 16 ack 40 ------- 0 4.584 16.149 0 9810
- 0.311472 1 16 tcp 1540 ------- 0 3.1219 16.517 1 10105
+ 0.31176 1 16 tcp 1540 ------- 0 3.1215 16.513 1 10176
+ 0.313024 1 16 tcp 1540 ------- 0 3.1215 16.513 2 10177
+ 0.31312 1 16 ack 40 ------- 0 4.593 16.158 9 10467
r 0.314244 1 16 tcp 1540 ---A--- 0 3.1204 16.502 1 9767
- 0.3164 1 16 ack 40 ------- 0 4.605 16.170 0 9636
- 0.316528 1 16 tcp 1540 ------- 0 3.1219 16.517 2 10106
+ 0.318304 1 16 ack 40 ------- 0 3.536 16.89 0 10325
r 0.319172 1 16 tcp 1540 ------- 0 3.1219 16.517 1 10105
r 0.3193 1 16 ack 40 ------- 0 4.605 16.170 0 9636
- 0.321456 1 16 ack 40 ------- 0 4.584 16.149 0 9810
- 0.321584 1 16 tcp 1540 ------- 0 3.1215 16.513 1 10176
+ 0.323174 1 16 ack 40 ------- 0 4.593 16.158 10 11008
r 0.324228 1 16 tcp 1540 ------- 0 3.1219 16.517 2 10106
r 0.324356 1 16 ack 40 ------- 0 4.584 16.149 0 9810
- 0.326512 1 16 tcp 1540 ------- 0 3.1215 16.513 2 10177
+ 0.326624 1 16 ack 40 ------- 0 6.723 16.216 7 8974
+ 0.32792 1 16 ack 40 ------- 0 6.723 16.216 7 9196
r 0.329284 1 16 tcp 1540 ------- 0 3.1215 16.513 1 10176
- 0.33144 1 16 ack 40 ------- 0 4.593 16.158 9 10467
- 0.331568 1 16 ack 40 ------- 0 3.536 16.89 0 10325
- 0.331696 1 16 ack 40 ------- 0 4.593 16.158 10 11008
- 0.331824 1 16 ack 40 ------- 0 6.723 16.216 7 8974
- 0.331952 1 16 ack 40 ------- 0 6.723 16.216 7 9196
+ 0.332912 1 16 ack 40 ------- 0 6.723 16.216 12 9444
- 0.332912 1 16 ack 40 ------- 0 6.723 16.216 12 9444
r 0.334212 1 16 tcp 1540 ------- 0 3.1215 16.513 2 10177
r 0.33434 1 16 ack 40 ------- 0 4.593 16.158 9 10467
r 0.334468 1 16 ack 40 ------- 0 3.536 16.89 0 10325
r 0.334596 1 16 ack 40 ------- 0 4.593 16.158 10 11008
r 0.334724 1 16 ack 40 ------- 0 6.723 16.216 7 8974
r 0.334852 1 16 ack 40 ------- 0 6.723 16.216 7 9196
r 0.335813 1 16 ack 40 ------- 0 6.723 16.216 12 9444
+ 0.337142 1 16 tcp 1540 ------- 0 24.336 16.954 1 10187
- 0.337142 1 16 tcp 1540 ------- 0 24.336 16.954 1 10187
+ 0.339606 1 16 tcp 1540 ------- 0 24.336 16.954 2 10188
- 0.34207 1 16 tcp 1540 ------- 0 24.336 16.954 2 10188
r 0.344843 1 16 tcp 1540 ------- 0 24.336 16.954 1 10187
+ 0.347589 1 16 ack 40 ------- 0 4.593 16.158 10 11799
- 0.347589 1 16 ack 40 ------- 0 4.593 16.158 10 11799
+ 0.347984 1 16 tcp 40 ------- 0 20.617 16.854 0 4687
- 0.347984 1 16 tcp 40 ------- 0 20.617 16.854 0 4687
+ 0.348853 1 16 tcp 40 ------- 0 3.1209 16.507 0 11796
- 0.348853 1 16 tcp 40 ------- 0 3.1209 16.507 0 11796
r 0.349771 1 16 tcp 1540 ------- 0 24.336 16.954 2 10188
+ 0.350213 1 16 tcp 40 ------- 0 4.1110 16.533 0 12016
- 0.350213 1 16 tcp 40 ------- 0 4.1110 16.533 0 12016
r 0.350489 1 16 ack 40 ------- 0 4.593 16.158 10 11799
r 0.350885 1 16 tcp 40 ------- 0 20.617 16.854 0 4687
r 0.351753 1 16 tcp 40 ------- 0 3.1209 16.507 0 11796
r 0.353113 1 16 tcp 40 ------- 0 4.1110 16.533 0 12016
+ 0.357521 1 16 ack 40 ------- 0 21.863 16.1092 1 6802
- 0.357521 1 16 ack 40 ------- 0 21.863 16.1092 1 6802
r 0.360422 1 16 ack 40 ------- 0 21.863 16.1092 1 6802
+ 0.366614 1 16 ack 40 ------- 0 4.560 16.125 1 12503
- 0.366614 1 16 ack 40 ------- 0 4.560 16.125 1 12503
+ 0.367761 1 16 ack 40 ------- 0 21.863 16.1092 2 7520
- 0.367761 1 16 ack 40 ------- 0 21.863 16.1092 2 7520
r 0.369515 1 16 ack 40 ------- 0 4.560 16.125 1 12503
r 0.370662 1 16 ack 40 ------- 0 21.863 16.1092 2 7520
+ 0.374998 1 16 tcp 1540 ------- 0 24.330 16.948 1 11260
- 0.374998 1 16 tcp 1540 ------- 0 24.330 16.948 1 11260
+ 0.377462 1 16 tcp 1540 ------- 0 24.330 16.948 2 11261
+ 0.377613 1 16 ack 40 ------- 0 0.396 16.4 7 13085
+ 0.377873 1 16 ack 40 ------- 0 21.847 16.1076 0 7535
- 0.379926 1 16 tcp 1540 ------- 0 24.330 16.948 2 11261
r 0.382699 1 16 tcp 1540 ------- 0 24.330 16.948 1 11260
- 0.384854 1 16 ack 40 ------- 0 0.396 16.4 7 13085
- 0.384982 1 16 ack 40 ------- 0 21.847 16.1076 0 7535
+ 0.386269 1 16 ack 40 ------- 0 0.396 16.4 8 13257
- 0.386269 1 16 ack 40 ------- 0 0.396 16.4 8 13257
+ 0.387533 1 16 ack 40 ------- 0 0.396 16.4 9 13309
- 0.387533 1 16 ack 40 ------- 0 0.396 16.4 9 13309
r 0.387627 1 16 tcp 1540 ------- 0 24.330 16.948 2 11261
r 0.387755 1 16 ack 40 ------- 0 0.396 16.4 7 13085
r 0.387883 1 16 ack 40 ------- 0 21.847 16.1076 0 7535
r 0.38917 1 16 ack 40 ------- 0 0.396 16.4 8 13257
+ 0.389334 1 16 ack 40 ------- 0 4.581 16.146 2 13210
- 0.389334 1 16 ack 40 ------- 0 4.581 16.146 2 13210
r 0.390434 1 16 ack 40 ------- 0 0.396 16.4 9 13309
r 0.392235 1 16 ack 40 ------- 0 4.581 16.146 2 13210
+ 0.397904 1 16 tcp 40 ------- 0 20.580 16.817 0 5890
- 0.397904 1 16 tcp 40 ------- 0 20.580 16.817 0 5890
r 0.400805 1 16 tcp 40 ------- 0 20.580 16.817 0 5890
+ 0.405702 1 16 ack 40 ------- 0 0.398 16.6 0 14343
- 0.405702 1 16 ack 40 ------- 0 0.398 16.6 0 14343
+ 0.407825 1 16 ack 40 ------- 0 21.867 16.1096 3 8060
- 0.407825 1 16 ack 40 ------- 0 21.867 16.1096 3 8060
+ 0.407953 1 16 ack 40 ------- 0 21.867 16.1096 4 8207
- 0.407953 1 16 ack 40 ------- 0 21.867 16.1096 4 8207
r 0.408603 1 16 ack 40 ------- 0 0.398 16.6 0 14343
r 0.410726 1 16 ack 40 ------- 0 21.867 16.1096 3 8060
r 0.410854 1 16 ack 40 ------- 0 21.867 16.1096 4 8207
+ 0.413137 1 16 ack 40 ------- 0 21.867 16.1096 6 8581
- 0.413137 1 16 ack 40 ------- 0 21.867 16.1096 6 8581
r 0.416038 1 16 ack 40 ------- 0 21.867 16.1096 6 8581
+ 0.423505 1 16 ack 40 ------- 0 21.881 16.1110 0 10369
- 0.423505 1 16 ack 40 ------- 0 21.881 16.1110 0 10369
r 0.426406 1 16 ack 40 ------- 0 21.881 16.1110 0 10369
+ 0.437657 1 16 tcp 40 ------- 0 1.1721 16.446 0 15818
- 0.437657 1 16 tcp 40 ------- 0 1.1721 16.446 0 15818
r 0.440557 1 16 tcp 40 ------- 0 1.1721 16.446 0 15818
+ 0.441292 1 16 tcp 1540 ------- 0 3.1204 16.502 3 15024
- 0.441292 1 16 tcp 1540 ------- 0 3.1204 16.502 3 15024
+ 0.442524 1 16 tcp 1540 ------- 0 3.1204 16.502 4 15025
- 0.44622 1 16 tcp 1540 ------- 0 3.1204 16.502 4 15025
+ 0.446348 1 16 tcp 1540 ------- 0 3.1219 16.517 3 15508
+ 0.447612 1 16 tcp 1540 ------- 0 3.1219 16.517 4 15509
+ 0.448876 1 16 tcp 1540 ------- 0 3.1219 16.517 5 15510
r 0.448993 1 16 tcp 1540 ------- 0 3.1204 16.502 3 15024
+ 0.449062 1 16 ack 40 ------- 0 4.605 16.170 1 15181
- 0.451148 1 16 tcp 1540 ------- 0 3.1219 16.517 3 15508
r 0.453921 1 16 tcp 1540 ------- 0 3.1204 16.502 4 15025
- 0.456076 1 16 tcp 1540 ------- 0 3.1219 16.517 4 15509
+ 0.456197 1 16 ack 40 ------- 0 4.605 16.170 2 15232
r 0.458849 1 16 tcp 1540 ------- 0 3.1219 16.517 3 15508
- 0.461004 1 16 tcp 1540 ------- 0 3.1219 16.517 5 15510
+ 0.462421 1 16 tcp 1540 ------- 0 3.1215 16.513 4 15680
+ 0.463714 1 16 tcp 1540 ------- 0 15.1239 16.696 1 12176
r 0.463777 1 16 tcp 1540 ------- 0 3.1219 16.517 4 15509
- 0.465932 1 16 ack 40 ------- 0 4.605 16.170 1 15181
- 0.46606 1 16 ack 40 ------- 0 4.605 16.170 2 15232
+ 0.466149 1 16 ack 40 ------- 0 4.584 16.149 1 15386
- 0.466188 1 16 tcp 1540 ------- 0 3.1215 16.513 4 15680
+ 0.46838 1 16 ack 40 ------- 0 20.1156 16.1041 0 10803
+ 0.468645 1 16 ack 40 ------- 0 3.508 16.61 3 16371
+ 0.468677 1 16 tcp 40 ------- 0 5.1448 16.561 0 15327
r 0.468705 1 16 tcp 1540 ------- 0 3.1219 16.517 5 15510
+ 0.468709 1 16 ack 40 ------- 0 4.584 16.149 2 15601
r 0.468833 1 16 ack 40 ------- 0 4.605 16.170 1 15181
r 0.468961 1 16 ack 40 ------- 0 4.605 16.170 2 15232
+ 0.471106 1 16 tcp 1540 ------- 0 15.1239 16.696 2 12177
- 0.471116 1 16 tcp 1540 ------- 0 15.1239 16.696 1 12176
r 0.473889 1 16 tcp 1540 ------- 0 3.1215 16.513 4 15680
- 0.476044 1 16 ack 40 ------- 0 4.584 16.149 1 15386
- 0.476172 1 16 ack 40 ------- 0 20.1156 16.1041 0 10803
- 0.4763 1 16 ack 40 ------- 0 3.508 16.61 3 16371
- 0.476428 1 16 tcp 40 ------- 0 5.1448 16.561 0 15327
- 0.476556 1 16 ack 40 ------- 0 4.584 16.149 2 15601
- 0.476684 1 16 tcp 1540 ------- 0 15.1239 16.696 2 12177
r 0.478817 1 16 tcp 1540 ------- 0 15.1239 16.696 1 12176
r 0.478945 1 16 ack 40 ------- 0 4.584 16.149 1 15386
r 0.479073 1 16 ack 40 ------- 0 20.1156 16.1041 0 10803
r 0.479201 1 16 ack 40 ------- 0 3.508 16.61 3 16371
r 0.479329 1 16 tcp 40 ------- 0 5.1448 16.561 0 15327
r 0.479457 1 16 ack 40 ------- 0 4.584 16.149 2 15601
r 0.484385 1 16 tcp 1540 ------- 0 15.1239 16.696 2 12177
+ 0.488327 1 16 ack 40 ------- 0 3.536 16.89 1 17191
- 0.488327 1 16 ack 40 ------- 0 3.536 16.89 1 17191
r 0.491228 1 16 ack 40 ------- 0 3.536 16.89 1 17191
+ 0.49373 1 16 tcp 1540 ------- 0 24.327 16.945 1 14867
- 0.49373 1 16 tcp 1540 ------- 0 24.327 16.945 1 14867
+ 0.496194 1 16 tcp 1540 ------- 0 24.327 16.945 2 14868
+ 0.496578 1 16 tcp 40 ------- 0 15.1259 16.716 0 13284
+ 0.497239 1 16 tcp 40 ------- 0 3.1216 16.514 0 17688
+ 0.497324 1 16 ack 40 ------- 0 6.723 16.216 18 17181
- 0.498658 1 16 tcp 1540 ------- 0 24.327 16.945 2 14868
+ 0.499288 1 16 tcp 40 ------- 0 17.476 16.754 0 13863
+ 0.501078 1 16 ack 40 ------- 0 4.593 16.158 10 17765
r 0.50143 1 16 tcp 1540 ------- 0 24.327 16.945 1 14867
+ 0.502342 1 16 ack 40 ------- 0 4.593 16.158 10 17815
- 0.503586 1 16 tcp 40 ------- 0 15.1259 16.716 0 13284
- 0.503714 1 16 tcp 40 ------- 0 3.1216 16.514 0 17688
- 0.503842 1 16 ack 40 ------- 0 6.723 16.216 18 17181
- 0.50397 1 16 tcp 40 ------- 0 17.476 16.754 0 13863
- 0.504098 1 16 ack 40 ------- 0 4.593 16.158 10 17765
- 0.504226 1 16 ack 40 ------- 0 4.593 16.158 10 17815
+ 0.50478 1 16 ack 40 ------- 0 6.723 16.216 18 17339
- 0.50478 1 16 ack 40 ------- 0 6.723 16.216 18 17339
r 0.506358 1 16 tcp 1540 ------- 0 24.327 16.945 2 14868
r 0.506486 1 16 tcp 40 ------- 0 15.1259 16.716 0 13284
r 0.506614 1 16 tcp 40 ------- 0 3.1216 16.514 0 17688
r 0.506742 1 16 ack 40 ------- 0 6.723 16.216 18 17181
r 0.50687 1 16 tcp 40 ------- 0 17.476 16.754 0 13863
r 0.506998 1 16 ack 40 ------- 0 4.593 16.158 10 17765
r 0.507126 1 16 ack 40 ------- 0 4.593 16.158 10 17815
r 0.50768 1 16 ack 40 ------- 0 6.723 16.216 18 17339
+ 0.508281 1 16 tcp 40 ------- 0 3.1217 16.515 0 18377
- 0.508281 1 16 tcp 40 ------- 0 3.1217 16.515 0 18377
r 0.511182 1 16 tcp 40 ------- 0 3.1217 16.515 0 18377
+ 0.515964 1 16 ack 40 ------- 0 20.1172 16.1057 0 12986
- 0.515964 1 16 ack 40 ------- 0 20.1172 16.1057 0 12986
+ 0.516424 1 16 tcp 1540 ------- 0 4.1110 16.533 1 18734
- 0.516424 1 16 tcp 1540 ------- 0 4.1110 16.533 1 18734
+ 0.517688 1 16 tcp 1540 ------- 0 4.1110 16.533 2 18735
r 0.518864 1 16 ack 40 ------- 0 20.1172 16.1057 0 12986
- 0.521352 1 16 tcp 1540 ------- 0 4.1110 16.533 2 18735
r 0.524125 1 16 tcp 1540 ------- 0 4.1110 16.533 1 18734
+ 0.52628 1 16 tcp 1540 ------- 0 3.1209 16.507 1 18598
- 0.52628 1 16 tcp 1540 ------- 0 3.1209 16.507 1 18598
+ 0.527512 1 16 tcp 1540 ------- 0 3.1209 16.507 2 18599
+ 0.529032 1 16 tcp 40 ------- 0 19.456 16.796 0 19252
r 0.529053 1 16 tcp 1540 ------- 0 4.1110 16.533 2 18735
+ 0.531102 1 16 ack 40 ------- 0 4.560 16.125 3 19330
- 0.531208 1 16 tcp 1540 ------- 0 3.1209 16.507 2 18599
r 0.533981 1 16 tcp 1540 ------- 0 3.1209 16.507 1 18598
- 0.536136 1 16 tcp 40 ------- 0 19.456 16.796 0 19252
- 0.536264 1 16 ack 40 ------- 0 4.560 16.125 3 19330
+ 0.536332 1 16 ack 40 ------- 0 4.560 16.125 4 19447
- 0.536392 1 16 ack 40 ------- 0 4.560 16.125 4 19447
r 0.538909 1 16 tcp 1540 ------- 0 3.1209 16.507 2 18599
r 0.539037 1 16 tcp 40 ------- 0 19.456 16.796 0 19252
r 0.539165 1 16 ack 40 ------- 0 4.560 16.125 3 19330
r 0.539293 1 16 ack 40 ------- 0 4.560 16.125 4 19447
+ 0.543884 1 16 tcp 40 ------- 0 3.1221 16.519 0 19235
- 0.543884 1 16 tcp 40 ------- 0 3.1221 16.519 0 19235
+ 0.545941 1 16 ack 40 ------- 0 0.396 16.4 9 20024
- 0.545941 1 16 ack 40 ------- 0 0.396 16.4 9 20024
r 0.546785 1 16 tcp 40 ------- 0 3.1221 16.519 0 19235
r 0.548841 1 16 ack 40 ------- 0 0.396 16.4 9 20024
+ 0.549521 1 16 ack 40 ------- 0 21.863 16.1092 2 15318
- 0.549521 1 16 ack 40 ------- 0 21.863 16.1092 2 15318
+ 0.550901 1 16 ack 40 ------- 0 0.396 16.4 9 20206
- 0.550901 1 16 ack 40 ------- 0 0.396 16.4 9 20206
r 0.552422 1 16 ack 40 ------- 0 21.863 16.1092 2 15318
r 0.553801 1 16 ack 40 ------- 0 0.396 16.4 9 20206
+ 0.578536 1 16 ack 40 ------- 0 0.396 16.4 9 21441
- 0.578536 1 16 ack 40 ------- 0 0.396 16.4 9 21441
r 0.581437 1 16 ack 40 ------- 0 0.396 16.4 9 21441
+ 0.584453 1 16 ack 40 ------- 0 0.396 16.4 9 21753
- 0.584453 1 16 ack 40 ------- 0 0.396 16.4 9 21753
+ 0.585717 1 16 ack 40 ------- 0 0.396 16.4 9 21794
- 0.585717 1 16 ack 40 ------- 0 0.396 16.4 9 21794
r 0.587353 1 16 ack 40 ------- 0 0.396 16.4 9 21753
r 0.588617 1 16 ack 40 ------- 0 0.396 16.4 9 21794
+ 0.589794 1 16 ack 40 ------- 0 24.931 16.1127 0 18324
- 0.589794 1 16 ack 40 ------- 0 24.931 16.1127 0 18324
+ 0.592258 1 16 tcp 1540 ------- 0 24.336 16.954 3 18328
- 0.592258 1 16 tcp 1540 ------- 0 24.336 16.954 3 18328
r 0.592694 1 16 ack 40 ------- 0 24.931 16.1127 0 18324
+ 0.594722 1 16 tcp 1540 ------- 0 24.336 16.954 4 18329
+ 0.597186 1 16 tcp 1540 ------- 0 24.336 16.954 5 18340
- 0.597186 1 16 tcp 1540 ------- 0 24.336 16.954 4 18329
+ 0.59965 1 16 tcp 1540 ------- 0 24.336 16.954 6 18341
+ 0.599915 1 16 tcp 1540 ------- 0 1.1721 16.446 1 22443
+ 0.599915 1 16 tcp 1540 ------- 0 1.1721 16.446 2 22444
r 0.599958 1 16 tcp 1540 ------- 0 24.336 16.954 3 18328
- 0.602114 1 16 tcp 1540 ------- 0 24.336 16.954 5 18340
r 0.604886 1 16 tcp 1540 ------- 0 24.336 16.954 4 18329
- 0.607042 1 16 tcp 1540 ------- 0 24.336 16.954 6 18341
+ 0.608613 1 16 tcp 1540 ---A--- 0 0.1217 16.444 1 22563
r 0.609814 1 16 tcp 1540 ------- 0 24.336 16.954 5 18340
+ 0.610613 1 16 ack 40 ------- 0 0.398 16.6 1 22726
- 0.61197 1 16 tcp 1540 ------- 0 1.1721 16.446 1 22443
+ 0.613077 1 16 tcp 40 ------- 0 5.1452 16.565 0 22164
r 0.614742 1 16 tcp 1540 ------- 0 24.336 16.954 6 18341
- 0.616898 1 16 tcp 1540 ------- 0 1.1721 16.446 2 22444
+ 0.616901 1 16 ack 40 ------- 0 0.398 16.6 2 23006
r 0.61967 1 16 tcp 1540 ------- 0 1.1721 16.446 1 22443
- 0.621826 1 16 tcp 1540 ---A--- 0 0.1217 16.444 1 22563
r 0.624598 1 16 tcp 1540 ------- 0 1.1721 16.446 2 22444
- 0.626754 1 16 ack 40 ------- 0 0.398 16.6 1 22726
- 0.626882 1 16 tcp 40 ------- 0 5.1452 16.565 0 22164
- 0.62701 1 16 ack 40 ------- 0 0.398 16.6 2 23006
r 0.629526 1 16 tcp 1540 ---A--- 0 0.1217 16.444 1 22563
r 0.629654 1 16 ack 40 ------- 0 0.398 16.6 1 22726
r 0.629782 1 16 tcp 40 ------- 0 5.1452 16.565 0 22164
r 0.62991 1 16 ack 40 ------- 0 0.398 16.6 2 23006
+ 0.634321 1 16 ack 40 ------- 0 21.876 16.1105 0 17345
- 0.634321 1 16 ack 40 ------- 0 21.876 16.1105 0 17345
r 0.637222 1 16 ack 40 ------- 0 21.876 16.1105 0 17345
+ 0.639761 1 16 ack 40 ------- 0 21.863 16.1092 2 18843
- 0.639761 1 16 ack 40 ------- 0 21.863 16.1092 2 18843
+ 0.639889 1 16 ack 40 ------- 0 21.863 16.1092 3 19240
- 0.639889 1 16 ack 40 ------- 0 21.863 16.1092 3 19240
r 0.642662 1 16 ack 40 ------- 0 21.863 16.1092 2 18843
r 0.64279 1 16 ack 40 ------- 0 21.863 16.1092 3 19240
+ 0.659155 1 16 ack 40 ------- 0 4.605 16.170 2 24615
- 0.659155 1 16 ack 40 ------- 0 4.605 16.170 2 24615
r 0.662056 1 16 ack 40 ------- 0 4.605 16.170 2 24615
+ 0.669717 1 16 ack 40 ------- 0 4.605 16.170 2 24802
- 0.669717 1 16 ack 40 ------- 0 4.605 16.170 2 24802
+ 0.669781 1 16 ack 40 ------- 0 4.605 16.170 2 24840
- 0.669845 1 16 ack 40 ------- 0 4.605 16.170 2 24840
r 0.672617 1 16 ack 40 ------- 0 4.605 16.170 2 24802
r 0.672745 1 16 ack 40 ------- 0 4.605 16.170 2 24840
+ 0.678187 1 16 tcp 1540 ------- 0 1.1721 16.446 3 25620
- 0.678187 1 16 tcp 1540 ------- 0 1.1721 16.446 3 25620
+ 0.678187 1 16 tcp 1540 ------- 0 1.1721 16.446 4 25621
+ 0.678315 1 16 tcp 1540 ------- 0 1.1721 16.446 5 25630
+ 0.678315 1 16 tcp 1540 ------- 0 1.1721 16.446 6 25631
+ 0.681317 1 16 ack 40 ------- 0 4.584 16.149 4 25443
- 0.683115 1 16 tcp 1540 ------- 0 1.1721 16.446 4 25621
+ 0.683845 1 16 tcp 1540 ------- 0 3.1204 16.502 5 24081
r 0.685888 1 16 tcp 1540 ------- 0 1.1721 16.446 3 25620
+ 0.687573 1 16 tcp 1540 ------- 0 3.1204 16.502 6 24082
- 0.688043 1 16 tcp 1540 ------- 0 1.1721 16.446 5 25630
+ 0.688837 1 16 tcp 1540 ------- 0 3.1219 16.517 6 24085
+ 0.689937 1 16 ack 40 ------- 0 21.858 16.1087 0 21132
+ 0.690101 1 16 tcp 1540 ------- 0 3.1219 16.517 7 24086
r 0.690816 1 16 tcp 1540 ------- 0 1.1721 16.446 4 25621
+ 0.691365 1 16 tcp 1540 ------- 0 3.1219 16.517 8 24090
+ 0.692597 1 16 tcp 1540 ------- 0 3.1219 16.517 9 24091
- 0.692971 1 16 tcp 1540 ------- 0 1.1721 16.446 6 25631
+ 0.69302 1 16 tcp 40 ------- 0 20.582 16.819 0 18769
r 0.695744 1 16 tcp 1540 ------- 0 1.1721 16.446 5 25630
+ 0.696325 1 16 tcp 1540 ------- 0 3.1219 16.517 10 24096
d 0.696325 1 16 tcp 1540 ------- 0 3.1219 16.517 10 24096
+ 0.697557 1 16 tcp 1540 ------- 0 3.1219 16.517 11 24097
d 0.697557 1 16 tcp 1540 ------- 0 3.1219 16.517 11 24097
+ 0.697589 1 16 tcp 40 ------- 0 3.1230 16.528 0 24106
d 0.697589 1 16 tcp 40 ------- 0 3.1230 16.528 0 24106
- 0.697899 1 16 ack 40 ------- 0 4.584 16.149 4 25443
- 0.698027 1 16 tcp 1540 ------- 0 3.1204 16.502 5 24081
+ 0.698078 1 16 tcp 40 ------- 0 1.1744 16.469 0 26466
r 0.700672 1 16 tcp 1540 ------- 0 1.1721 16.446 6 25631
r 0.7008 1 16 ack 40 ------- 0 4.584 16.149 4 25443