+ 0.002645 4 5 rtProtoDV 26 ------- 0 4.1386 5.1623 -1 31
- 0.002645 4 5 rtProtoDV 26 ------- 0 4.1386 5.1623 -1 31
r 0.004165 4 5 rtProtoDV 26 ------- 0 4.1386 5.1623 -1 31
+ 0.005685 4 5 rtProtoDV 26 ------- 0 4.1386 5.1623 -1 108
- 0.005685 4 5 rtProtoDV 26 ------- 0 4.1386 5.1623 -1 108
+ 0.005971 4 5 rtProtoDV 26 ------- 0 4.1386 5.1623 -1 123
- 0.005971 4 5 rtProtoDV 26 ------- 0 4.1386 5.1623 -1 123
+ 0.006804 4 5 rtProtoDV 26 ------- 0 4.1386 5.1623 -1 148
- 0.006804 4 5 rtProtoDV 26 ------- 0 4.1386 5.1623 -1 148
r 0.007204 4 5 rtProtoDV 26 ------- 0 4.1386 5.1623 -1 108
r 0.007491 4 5 rtProtoDV 26 ------- 0 4.1386 5.1623 -1 123
r 0.008323 4 5 rtProtoDV 26 ------- 0 4.1386 5.1623 -1 148
+ 0.008416 4 5 rtProtoDV 26 ------- 0 4.1386 5.1623 -1 226
- 0.008416 4 5 rtProtoDV 26 ------- 0 4.1386 5.1623 -1 226
r 0.009936 4 5 rtProtoDV 26 ------- 0 4.1386 5.1623 -1 226
+ 0.01089 4 5 ack 40 ------- 0 0.152 5.0 0 224
- 0.01089 4 5 ack 40 ------- 0 0.152 5.0 0 224
+ 0.012318 4 5 rtProtoDV 26 ------- 0 4.1386 5.1623 -1 437
- 0.012318 4 5 rtProtoDV 26 ------- 0 4.1386 5.1623 -1 437
r 0.012421 4 5 ack 40 ------- 0 0.152 5.0 0 224
+ 0.013388 4 5 rtProtoDV 26 ------- 0 4.1386 5.1623 -1 487
- 0.013388 4 5 rtProtoDV 26 ------- 0 4.1386 5.1623 -1 487
r 0.013838 4 5 rtProtoDV 26 ------- 0 4.1386 5.1623 -1 437
+ 0.014583 4 5 rtProtoDV 26 ------- 0 4.1386 5.1623 -1 547
- 0.014583 4 5 rtProtoDV 26 ------- 0 4.1386 5.1623 -1 547
r 0.014907 4 5 rtProtoDV 26 ------- 0 4.1386 5.1623 -1 487
r 0.016103 4 5 rtProtoDV 26 ------- 0 4.1386 5.1623 -1 547
+ 0.016136 4 5 tcp 40 ------- 0 15.218 5.729 0 378
- 0.016136 4 5 tcp 40 ------- 0 15.218 5.729 0 378
r 0.017667 4 5 tcp 40 ------- 0 15.218 5.729 0 378
+ 0.021325 4 5 ack 40 ------- 0 0.152 5.0 1 708
- 0.021325 4 5 ack 40 ------- 0 0.152 5.0 1 708
+ 0.022557 4 5 ack 40 ------- 0 0.152 5.0 2 748
- 0.022557 4 5 ack 40 ------- 0 0.152 5.0 2 748
r 0.022856 4 5 ack 40 ------- 0 0.152 5.0 1 708
r 0.024088 4 5 ack 40 ------- 0 0.152 5.0 2 748
+ 0.030093 4 5 tcp 1540 ------- 0 15.218 5.729 1 857
- 0.030093 4 5 tcp 1540 ------- 0 15.218 5.729 1 857
+ 0.031325 4 5 tcp 1540 ------- 0 15.218 5.729 2 858
- 0.031325 4 5 tcp 1540 ------- 0 15.218 5.729 2 858
+ 0.03176 4 5 ack 40 ------- 0 0.152 5.0 3 976
+ 0.032517 4 5 tcp 40 ------- 0 4.1335 22.760 0 1054
- 0.032557 4 5 ack 40 ------- 0 0.152 5.0 3 976
- 0.032589 4 5 tcp 40 ------- 0 4.1335 22.760 0 1054
r 0.032824 4 5 tcp 1540 ------- 0 15.218 5.729 1 857
+ 0.034048 4 5 ack 40 ------- 0 0.152 5.0 4 1008
- 0.034048 4 5 ack 40 ------- 0 0.152 5.0 4 1008
r 0.034056 4 5 tcp 1540 ------- 0 15.218 5.729 2 858
r 0.034088 4 5 ack 40 ------- 0 0.152 5.0 3 976
r 0.03412 4 5 tcp 40 ------- 0 4.1335 22.760 0 1054
+ 0.035312 4 5 ack 40 ------- 0 0.152 5.0 5 1041
- 0.035312 4 5 ack 40 ------- 0 0.152 5.0 5 1041
+ 0.035552 4 5 ack 40 ------- 0 0.152 5.0 6 1066
- 0.035552 4 5 ack 40 ------- 0 0.152 5.0 6 1066
r 0.035579 4 5 ack 40 ------- 0 0.152 5.0 4 1008
r 0.036843 4 5 ack 40 ------- 0 0.152 5.0 5 1041
r 0.037083 4 5 ack 40 ------- 0 0.152 5.0 6 1066
+ 0.037488 4 5 tcp 40 ------- 0 17.187 5.828 0 1069
- 0.037488 4 5 tcp 40 ------- 0 17.187 5.828 0 1069
r 0.039019 4 5 tcp 40 ------- 0 17.187 5.828 0 1069
+ 0.039232 4 5 ack 40 ------- 0 10.388 5.1151 0 1004
- 0.039232 4 5 ack 40 ------- 0 10.388 5.1151 0 1004
r 0.040763 4 5 ack 40 ------- 0 10.388 5.1151 0 1004
+ 0.042948 4 5 ack 40 ------- 0 19.885 5.1517 0 917
- 0.042948 4 5 ack 40 ------- 0 19.885 5.1517 0 917
+ 0.043044 4 5 ack 40 ------- 0 0.152 5.0 7 1245
- 0.043044 4 5 ack 40 ------- 0 0.152 5.0 7 1245
r 0.044479 4 5 ack 40 ------- 0 19.885 5.1517 0 917
r 0.044575 4 5 ack 40 ------- 0 0.152 5.0 7 1245
+ 0.045251 4 5 tcp 1540 ------- 0 15.218 5.729 3 1207
- 0.045251 4 5 tcp 1540 ------- 0 15.218 5.729 3 1207
+ 0.045469 4 5 ack 40 ------- 0 0.152 5.0 8 1272
+ 0.046483 4 5 tcp 1540 ------- 0 15.218 5.729 4 1208
- 0.046483 4 5 ack 40 ------- 0 0.152 5.0 8 1272
- 0.046515 4 5 tcp 1540 ------- 0 15.218 5.729 4 1208
+ 0.046797 4 5 ack 40 ------- 0 0.152 5.0 9 1311
+ 0.047715 4 5 tcp 1540 ------- 0 15.218 5.729 5 1241
- 0.047747 4 5 ack 40 ------- 0 0.152 5.0 9 1311
- 0.047779 4 5 tcp 1540 ------- 0 15.218 5.729 5 1241
r 0.047982 4 5 tcp 1540 ------- 0 15.218 5.729 3 1207
r 0.048014 4 5 ack 40 ------- 0 0.152 5.0 8 1272
+ 0.048093 4 5 ack 40 ------- 0 0.152 5.0 10 1339
+ 0.048947 4 5 tcp 1540 ------- 0 15.218 5.729 6 1242
- 0.049011 4 5 ack 40 ------- 0 0.152 5.0 10 1339
- 0.049043 4 5 tcp 1540 ------- 0 15.218 5.729 6 1242
r 0.049246 4 5 tcp 1540 ------- 0 15.218 5.729 4 1208
r 0.049278 4 5 ack 40 ------- 0 0.152 5.0 9 1311
+ 0.050192 4 5 tcp 40 ------- 0 11.197 5.517 0 895
- 0.050275 4 5 tcp 40 ------- 0 11.197 5.517 0 895
r 0.05051 4 5 tcp 1540 ------- 0 15.218 5.729 5 1241
r 0.050542 4 5 ack 40 ------- 0 0.152 5.0 10 1339
r 0.051774 4 5 tcp 1540 ------- 0 15.218 5.729 6 1242
r 0.051806 4 5 tcp 40 ------- 0 11.197 5.517 0 895
+ 0.051885 4 5 ack 40 ------- 0 0.152 5.0 11 1379
- 0.051885 4 5 ack 40 ------- 0 0.152 5.0 11 1379
+ 0.053181 4 5 ack 40 ------- 0 0.152 5.0 12 1397
- 0.053181 4 5 ack 40 ------- 0 0.152 5.0 12 1397
r 0.053416 4 5 ack 40 ------- 0 0.152 5.0 11 1379
+ 0.054445 4 5 ack 40 ------- 0 0.152 5.0 13 1431
- 0.054445 4 5 ack 40 ------- 0 0.152 5.0 13 1431
+ 0.054477 4 5 ack 40 ------- 0 19.867 5.1499 0 1120
- 0.054477 4 5 ack 40 ------- 0 19.867 5.1499 0 1120
+ 0.054573 4 5 tcp 40 ------- 0 0.1301 20.674 0 1513
- 0.054573 4 5 tcp 40 ------- 0 0.1301 20.674 0 1513
r 0.054712 4 5 ack 40 ------- 0 0.152 5.0 12 1397
+ 0.055073 4 5 tcp 40 ------- 0 19.184 5.900 0 1401
- 0.055073 4 5 tcp 40 ------- 0 19.184 5.900 0 1401
r 0.055976 4 5 ack 40 ------- 0 0.152 5.0 13 1431
r 0.056008 4 5 ack 40 ------- 0 19.867 5.1499 0 1120
r 0.056104 4 5 tcp 40 ------- 0 0.1301 20.674 0 1513
r 0.056604 4 5 tcp 40 ------- 0 19.184 5.900 0 1401
+ 0.060528 4 5 ack 40 ------- 0 0.152 5.0 15 1703
- 0.060528 4 5 ack 40 ------- 0 0.152 5.0 15 1703
r 0.062059 4 5 ack 40 ------- 0 0.152 5.0 15 1703
+ 0.064569 4 5 tcp 1540 ------- 0 15.218 5.729 7 1717
- 0.064569 4 5 tcp 1540 ------- 0 15.218 5.729 7 1717
+ 0.064578 4 5 tcp 1540 ------- 0 17.187 5.828 1 1579
+ 0.065801 4 5 tcp 1540 ------- 0 15.218 5.729 8 1718
- 0.065801 4 5 tcp 1540 ------- 0 17.187 5.828 1 1579
- 0.067033 4 5 tcp 1540 ------- 0 15.218 5.729 8 1718
+ 0.067097 4 5 tcp 1540 ------- 0 15.218 5.729 9 1765
+ 0.067138 4 5 ack 40 ------- 0 0.152 5.0 16 1804
+ 0.06717 4 5 ack 40 ------- 0 0.152 5.0 17 1840
r 0.067299 4 5 tcp 1540 ------- 0 15.218 5.729 7 1717
- 0.068265 4 5 tcp 1540 ------- 0 15.218 5.729 9 1765
+ 0.068329 4 5 tcp 1540 ------- 0 15.218 5.729 10 1766
+ 0.068466 4 5 ack 40 ------- 0 0.152 5.0 18 1876
r 0.068531 4 5 tcp 1540 ------- 0 17.187 5.828 1 1579
- 0.069497 4 5 ack 40 ------- 0 0.152 5.0 16 1804
- 0.069529 4 5 ack 40 ------- 0 0.152 5.0 17 1840
- 0.069561 4 5 tcp 1540 ------- 0 15.218 5.729 10 1766
+ 0.069698 4 5 tcp 1540 ------- 0 17.187 5.828 2 1580
r 0.069763 4 5 tcp 1540 ------- 0 15.218 5.729 8 1718
+ 0.069794 4 5 ack 40 ------- 0 0.152 5.0 19 1914
+ 0.06989 4 5 ack 40 ------- 0 0.152 5.0 20 1935
- 0.070793 4 5 ack 40 ------- 0 0.152 5.0 18 1876
- 0.070825 4 5 tcp 1540 ------- 0 17.187 5.828 2 1580
r 0.070995 4 5 tcp 1540 ------- 0 15.218 5.729 9 1765
r 0.071027 4 5 ack 40 ------- 0 0.152 5.0 16 1804
r 0.071059 4 5 ack 40 ------- 0 0.152 5.0 17 1840
+ 0.071938 4 5 ack 40 ------- 0 0.152 5.0 21 1980
+ 0.072002 4 5 ack 40 ------- 0 0.152 5.0 22 2029
+ 0.072025 4 5 tcp 1540 ------- 0 15.218 5.729 11 1837
- 0.072057 4 5 ack 40 ------- 0 0.152 5.0 19 1914
- 0.072089 4 5 ack 40 ------- 0 0.152 5.0 20 1935
- 0.072121 4 5 ack 40 ------- 0 0.152 5.0 21 1980
- 0.072153 4 5 ack 40 ------- 0 0.152 5.0 22 2029
- 0.072185 4 5 tcp 1540 ------- 0 15.218 5.729 11 1837
r 0.072291 4 5 tcp 1540 ------- 0 15.218 5.729 10 1766
r 0.072323 4 5 ack 40 ------- 0 0.152 5.0 18 1876
+ 0.073095 4 5 tcp 40 ------- 0 4.1336 22.761 0 2160
+ 0.073257 4 5 tcp 1540 ------- 0 15.218 5.729 12 1838
+ 0.073392 4 5 ack 40 ------- 0 0.152 5.0 23 2071
- 0.073417 4 5 tcp 40 ------- 0 4.1336 22.761 0 2160
- 0.073449 4 5 tcp 1540 ------- 0 15.218 5.729 12 1838
r 0.073555 4 5 tcp 1540 ------- 0 17.187 5.828 2 1580
r 0.073587 4 5 ack 40 ------- 0 0.152 5.0 19 1914
r 0.073619 4 5 ack 40 ------- 0 0.152 5.0 20 1935
r 0.073651 4 5 ack 40 ------- 0 0.152 5.0 21 1980
r 0.073683 4 5 ack 40 ------- 0 0.152 5.0 22 2029
+ 0.074376 4 5 tcp 1540 ------- 0 4.1335 22.760 1 2196
+ 0.074376 4 5 tcp 1540 ------- 0 4.1335 22.760 2 2197
- 0.074681 4 5 ack 40 ------- 0 0.152 5.0 23 2071
- 0.074713 4 5 tcp 1540 ------- 0 4.1335 22.760 1 2196
r 0.074915 4 5 tcp 1540 ------- 0 15.218 5.729 11 1837
r 0.074947 4 5 tcp 40 ------- 0 4.1336 22.761 0 2160
+ 0.075634 4 5 ack 40 ------- 0 0.152 5.0 24 2133
- 0.075945 4 5 tcp 1540 ------- 0 4.1335 22.760 2 2197
r 0.076179 4 5 tcp 1540 ------- 0 15.218 5.729 12 1838
r 0.076211 4 5 ack 40 ------- 0 0.152 5.0 23 2071
+ 0.076985 4 5 tcp 1540 ------- 0 15.218 5.729 13 1909
- 0.077177 4 5 ack 40 ------- 0 0.152 5.0 24 2133
- 0.077209 4 5 tcp 1540 ------- 0 15.218 5.729 13 1909
r 0.077443 4 5 tcp 1540 ------- 0 4.1335 22.760 1 2196
+ 0.077784 4 5 tcp 40 ------- 0 4.1221 20.815 0 2308
+ 0.078217 4 5 tcp 1540 ------- 0 15.218 5.729 14 1910
- 0.078441 4 5 tcp 40 ------- 0 4.1221 20.815 0 2308
- 0.078473 4 5 tcp 1540 ------- 0 15.218 5.729 14 1910
r 0.078675 4 5 tcp 1540 ------- 0 4.1335 22.760 2 2197
r 0.078707 4 5 ack 40 ------- 0 0.152 5.0 24 2133
r 0.079939 4 5 tcp 1540 ------- 0 15.218 5.729 13 1909
r 0.079971 4 5 tcp 40 ------- 0 4.1221 20.815 0 2308
+ 0.080057 4 5 tcp 40 ------- 0 0.1324 20.697 0 2305
- 0.080057 4 5 tcp 40 ------- 0 0.1324 20.697 0 2305
+ 0.080912 4 5 ack 40 ------- 0 0.152 5.0 25 2337
- 0.080912 4 5 ack 40 ------- 0 0.152 5.0 25 2337
r 0.081203 4 5 tcp 1540 ------- 0 15.218 5.729 14 1910
r 0.081588 4 5 tcp 40 ------- 0 0.1324 20.697 0 2305
+ 0.082144 4 5 ack 40 ------- 0 0.152 5.0 26 2382
- 0.082144 4 5 ack 40 ------- 0 0.152 5.0 26 2382
r 0.082443 4 5 ack 40 ------- 0 0.152 5.0 25 2337
+ 0.083518 4 5 tcp 40 ------- 0 15.235 5.746 0 2346
- 0.083518 4 5 tcp 40 ------- 0 15.235 5.746 0 2346
r 0.083675 4 5 ack 40 ------- 0 0.152 5.0 26 2382
r 0.085049 4 5 tcp 40 ------- 0 15.235 5.746 0 2346
+ 0.085176 4 5 tcp 1540 ------- 0 15.218 5.729 15 2362
- 0.085176 4 5 tcp 1540 ------- 0 15.218 5.729 15 2362
+ 0.085304 4 5 ack 40 ------- 0 0.152 5.0 27 2429
+ 0.085368 4 5 ack 40 ------- 0 0.152 5.0 28 2470
+ 0.086408 4 5 tcp 1540 ------- 0 15.218 5.729 16 2363
- 0.086408 4 5 ack 40 ------- 0 0.152 5.0 27 2429
- 0.08644 4 5 ack 40 ------- 0 0.152 5.0 28 2470
- 0.086472 4 5 tcp 1540 ------- 0 15.218 5.729 16 2363
+ 0.086622 4 5 tcp 40 ------- 0 19.1290 25.551 0 2358
+ 0.08764 4 5 tcp 1540 ------- 0 15.218 5.729 17 2364
- 0.087704 4 5 tcp 40 ------- 0 19.1290 25.551 0 2358
- 0.087736 4 5 tcp 1540 ------- 0 15.218 5.729 17 2364
r 0.087907 4 5 tcp 1540 ------- 0 15.218 5.729 15 2362
r 0.087939 4 5 ack 40 ------- 0 0.152 5.0 27 2429
r 0.087971 4 5 ack 40 ------- 0 0.152 5.0 28 2470
+ 0.088872 4 5 tcp 1540 ------- 0 15.218 5.729 18 2365
- 0.088968 4 5 tcp 1540 ------- 0 15.218 5.729 18 2365
r 0.089203 4 5 tcp 1540 ------- 0 15.218 5.729 16 2363
r 0.089235 4 5 tcp 40 ------- 0 19.1290 25.551 0 2358
+ 0.08925 4 5 tcp 40 ------- 0 17.1412 25.508 0 2351
+ 0.090104 4 5 tcp 1540 ------- 0 15.218 5.729 19 2367
- 0.0902 4 5 tcp 40 ------- 0 17.1412 25.508 0 2351
- 0.090232 4 5 tcp 1540 ------- 0 15.218 5.729 19 2367
r 0.090467 4 5 tcp 1540 ------- 0 15.218 5.729 17 2364
+ 0.091336 4 5 tcp 1540 ------- 0 15.218 5.729 20 2368
- 0.091464 4 5 tcp 1540 ------- 0 15.218 5.729 20 2368
r 0.091699 4 5 tcp 1540 ------- 0 15.218 5.729 18 2365
r 0.091731 4 5 tcp 40 ------- 0 17.1412 25.508 0 2351
r 0.092963 4 5 tcp 1540 ------- 0 15.218 5.729 19 2367
r 0.094195 4 5 tcp 1540 ------- 0 15.218 5.729 20 2368
+ 0.094328 4 5 tcp 1540 ------- 0 15.218 5.729 21 2673
- 0.094328 4 5 tcp 1540 ------- 0 15.218 5.729 21 2673
+ 0.09556 4 5 tcp 1540 ------- 0 15.218 5.729 22 2674
- 0.09556 4 5 tcp 1540 ------- 0 15.218 5.729 22 2674
+ 0.095592 4 5 ack 40 ------- 0 11.612 5.1264 0 1438
- 0.096792 4 5 ack 40 ------- 0 11.612 5.1264 0 1438
r 0.097059 4 5 tcp 1540 ------- 0 15.218 5.729 21 2673
+ 0.09797 4 5 ack 40 ------- 0 0.152 5.0 29 2835
- 0.09797 4 5 ack 40 ------- 0 0.152 5.0 29 2835
+ 0.098002 4 5 ack 40 ------- 0 0.152 5.0 30 2864
- 0.098002 4 5 ack 40 ------- 0 0.152 5.0 30 2864
r 0.098291 4 5 tcp 1540 ------- 0 15.218 5.729 22 2674
r 0.098323 4 5 ack 40 ------- 0 11.612 5.1264 0 1438
+ 0.099112 4 5 tcp 1540 ------- 0 15.218 5.729 23 2823
- 0.099112 4 5 tcp 1540 ------- 0 15.218 5.729 23 2823
+ 0.099161 4 5 tcp 1540 ------- 0 4.1221 20.815 1 3016
+ 0.099161 4 5 tcp 1540 ------- 0 4.1221 20.815 2 3017
+ 0.09933 4 5 tcp 40 ------- 0 17.1337 20.1185 0 2775
+ 0.099362 4 5 ack 40 ------- 0 0.152 5.0 31 2902
r 0.099501 4 5 ack 40 ------- 0 0.152 5.0 29 2835
r 0.099533 4 5 ack 40 ------- 0 0.152 5.0 30 2864
+ 0.100344 4 5 tcp 1540 ------- 0 15.218 5.729 24 2824
- 0.100344 4 5 tcp 1540 ------- 0 4.1221 20.815 1 3016
+ 0.100944 4 5 ack 40 ------- 0 0.152 5.0 32 2999
+ 0.101576 4 5 tcp 1540 ------- 0 15.218 5.729 25 2827
- 0.101576 4 5 tcp 1540 ------- 0 4.1221 20.815 2 3017
r 0.101843 4 5 tcp 1540 ------- 0 15.218 5.729 23 2823
+ 0.102808 4 5 tcp 1540 ------- 0 15.218 5.729 26 2828
- 0.102808 4 5 tcp 40 ------- 0 17.1337 20.1185 0 2775
- 0.10284 4 5 ack 40 ------- 0 0.152 5.0 31 2902
- 0.102872 4 5 tcp 1540 ------- 0 15.218 5.729 24 2824
+ 0.102968 4 5 tcp 40 ------- 0 12.172 5.642 0 2822
r 0.103075 4 5 tcp 1540 ------- 0 4.1221 20.815 1 3016
+ 0.103917 4 5 ack 40 ------- 0 0.152 5.0 33 3086
- 0.104104 4 5 ack 40 ------- 0 0.152 5.0 32 2999
- 0.104136 4 5 tcp 1540 ------- 0 15.218 5.729 25 2827
+ 0.104232 4 5 tcp 1540 ------- 0 15.218 5.729 27 2892
r 0.104307 4 5 tcp 1540 ------- 0 4.1221 20.815 2 3017
+ 0.104322 4 5 ack 40 ------- 0 10.388 5.1151 1 1775
r 0.104339 4 5 tcp 40 ------- 0 17.1337 20.1185 0 2775
r 0.104371 4 5 ack 40 ------- 0 0.152 5.0 31 2902
+ 0.10464 4 5 ack 40 ------- 0 0.152 5.0 34 3129
- 0.105368 4 5 tcp 1540 ------- 0 15.218 5.729 26 2828
+ 0.105464 4 5 tcp 1540 ------- 0 15.218 5.729 28 2893
r 0.105603 4 5 tcp 1540 ------- 0 15.218 5.729 24 2824
r 0.105635 4 5 ack 40 ------- 0 0.152 5.0 32 2999
+ 0.10614 4 5 tcp 40 ------- 0 4.1234 20.828 0 3268
- 0.1066 4 5 tcp 40 ------- 0 12.172 5.642 0 2822
- 0.106632 4 5 ack 40 ------- 0 0.152 5.0 33 3086
- 0.106664 4 5 tcp 1540 ------- 0 15.218 5.729 27 2892
+ 0.106696 4 5 tcp 1540 ------- 0 15.218 5.729 29 2894
r 0.106867 4 5 tcp 1540 ------- 0 15.218 5.729 25 2827
- 0.107896 4 5 ack 40 ------- 0 10.388 5.1151 1 1775
+ 0.107928 4 5 tcp 1540 ------- 0 15.218 5.729 30 2895
- 0.107928 4 5 ack 40 ------- 0 0.152 5.0 34 3129
- 0.10796 4 5 tcp 1540 ------- 0 15.218 5.729 28 2893
r 0.108099 4 5 tcp 1540 ------- 0 15.218 5.729 26 2828
r 0.108131 4 5 tcp 40 ------- 0 12.172 5.642 0 2822
r 0.108163 4 5 ack 40 ------- 0 0.152 5.0 33 3086
- 0.109192 4 5 tcp 40 ------- 0 4.1234 20.828 0 3268
+ 0.109224 4 5 tcp 1540 ------- 0 15.235 5.746 1 3012
- 0.109224 4 5 tcp 1540 ------- 0 15.218 5.729 29 2894
r 0.109395 4 5 tcp 1540 ------- 0 15.218 5.729 27 2892
r 0.109427 4 5 ack 40 ------- 0 10.388 5.1151 1 1775
r 0.109459 4 5 ack 40 ------- 0 0.152 5.0 34 3129
+ 0.110456 4 5 tcp 1540 ------- 0 15.235 5.746 2 3013
- 0.110456 4 5 tcp 1540 ------- 0 15.218 5.729 30 2895
r 0.110691 4 5 tcp 1540 ------- 0 15.218 5.729 28 2893
r 0.110723 4 5 tcp 40 ------- 0 4.1234 20.828 0 3268
+ 0.111688 4 5 tcp 1540 ------- 0 15.218 5.729 31 3014
- 0.111688 4 5 tcp 1540 ------- 0 15.235 5.746 1 3012
r 0.111955 4 5 tcp 1540 ------- 0 15.218 5.729 29 2894
+ 0.11292 4 5 tcp 1540 ------- 0 15.218 5.729 32 3015
- 0.11292 4 5 tcp 1540 ------- 0 15.235 5.746 2 3013
+ 0.112984 4 5 tcp 40 ------- 0 15.195 5.706 0 3074
r 0.113187 4 5 tcp 1540 ------- 0 15.218 5.729 30 2895
- 0.114152 4 5 tcp 1540 ------- 0 15.218 5.729 31 3014
r 0.114419 4 5 tcp 1540 ------- 0 15.235 5.746 1 3012
- 0.115384 4 5 tcp 1540 ------- 0 15.218 5.729 32 3015
+ 0.115448 4 5 tcp 1540 ------- 0 15.218 5.729 33 3106
r 0.115651 4 5 tcp 1540 ------- 0 15.235 5.746 2 3013
- 0.116616 4 5 tcp 40 ------- 0 15.195 5.706 0 3074
- 0.116648 4 5 tcp 1540 ------- 0 15.218 5.729 33 3106
+ 0.11668 4 5 tcp 1540 ------- 0 15.218 5.729 34 3107
r 0.116883 4 5 tcp 1540 ------- 0 15.218 5.729 31 3014
+ 0.117056 4 5 ack 40 ------- 0 0.152 5.0 35 3180
+ 0.11712 4 5 ack 40 ------- 0 0.152 5.0 36 3304
- 0.11788 4 5 tcp 1540 ------- 0 15.218 5.729 34 3107
+ 0.117912 4 5 tcp 1540 ------- 0 15.218 5.729 35 3108
r 0.118115 4 5 tcp 1540 ------- 0 15.218 5.729 32 3015
r 0.118147 4 5 tcp 40 ------- 0 15.195 5.706 0 3074
+ 0.118384 4 5 ack 40 ------- 0 0.152 5.0 37 3341
- 0.119112 4 5 ack 40 ------- 0 0.152 5.0 35 3180
+ 0.119144 4 5 tcp 1540 ------- 0 15.218 5.729 36 3109
- 0.119144 4 5 ack 40 ------- 0 0.152 5.0 36 3304
- 0.119176 4 5 tcp 1540 ------- 0 15.218 5.729 35 3108
r 0.119379 4 5 tcp 1540 ------- 0 15.218 5.729 33 3106
+ 0.120376 4 5 tcp 1540 ------- 0 15.218 5.729 37 3113
- 0.120408 4 5 ack 40 ------- 0 0.152 5.0 37 3341
- 0.12044 4 5 tcp 1540 ------- 0 15.218 5.729 36 3109
r 0.120611 4 5 tcp 1540 ------- 0 15.218 5.729 34 3107
r 0.120643 4 5 ack 40 ------- 0 0.152 5.0 35 3180
r 0.120675 4 5 ack 40 ------- 0 0.152 5.0 36 3304
+ 0.121608 4 5 tcp 1540 ------- 0 15.218 5.729 38 3114
- 0.121672 4 5 tcp 1540 ------- 0 15.218 5.729 37 3113
r 0.121907 4 5 tcp 1540 ------- 0 15.218 5.729 35 3108
r 0.121939 4 5 ack 40 ------- 0 0.152 5.0 37 3341
+ 0.122176 4 5 ack 40 ------- 0 0.152 5.0 41 3564
+ 0.122208 4 5 ack 40 ------- 0 0.152 5.0 42 3594
+ 0.12284 4 5 tcp 1540 ------- 0 15.218 5.729 39 3115
- 0.122904 4 5 tcp 1540 ------- 0 15.218 5.729 38 3114
r 0.123171 4 5 tcp 1540 ------- 0 15.218 5.729 36 3109
+ 0.12344 4 5 tcp 1540 ------- 0 0.1301 20.674 1 3596
+ 0.124072 4 5 tcp 1540 ------- 0 15.218 5.729 40 3116
- 0.124136 4 5 ack 40 ------- 0 0.152 5.0 41 3564
- 0.124168 4 5 ack 40 ------- 0 0.152 5.0 42 3594
- 0.1242 4 5 tcp 1540 ------- 0 15.218 5.729 39 3115
r 0.124403 4 5 tcp 1540 ------- 0 15.218 5.729 37 3113
+ 0.124672 4 5 tcp 1540 ------- 0 0.1301 20.674 2 3597
+ 0.124704 4 5 ack 40 ------- 0 0.152 5.0 43 3629
+ 0.125021 4 5 tcp 40 ------- 0 4.1353 25.65 0 3850
+ 0.125432 4 5 tcp 1540 ------- 0 15.218 5.729 41 3209
- 0.125432 4 5 tcp 1540 ------- 0 0.1301 20.674 1 3596
r 0.125635 4 5 tcp 1540 ------- 0 15.218 5.729 38 3114
r 0.125667 4 5 ack 40 ------- 0 0.152 5.0 41 3564
r 0.125699 4 5 ack 40 ------- 0 0.152 5.0 42 3594
+ 0.125968 4 5 tcp 1540 ------- 0 17.187 5.828 5 3397
+ 0.126 4 5 ack 40 ------- 0 0.152 5.0 44 3675
+ 0.126032 4 5 ack 40 ------- 0 0.152 5.0 45 3715
+ 0.126064 4 5 ack 40 ------- 0 0.152 5.0 46 3757
- 0.126664 4 5 tcp 1540 ------- 0 15.218 5.729 40 3116
r 0.126931 4 5 tcp 1540 ------- 0 15.218 5.729 39 3115
+ 0.12736 4 5 ack 40 ------- 0 0.152 5.0 47 3795
- 0.127896 4 5 tcp 1540 ------- 0 0.1301 20.674 2 3597
r 0.128163 4 5 tcp 1540 ------- 0 0.1301 20.674 1 3596
+ 0.128592 4 5 tcp 1540 ------- 0 17.187 5.828 6 3398
+ 0.128624 4 5 ack 40 ------- 0 0.152 5.0 48 3852
d 0.128624 4 5 ack 40 ------- 0 0.152 5.0 48 3852
+ 0.129128 4 5 tcp 1540 ------- 0 15.218 5.729 42 3252
d 0.129128 4 5 tcp 1540 ------- 0 15.218 5.729 42 3252
- 0.129128 4 5 ack 40 ------- 0 0.152 5.0 43 3629
- 0.12916 4 5 tcp 40 ------- 0 4.1353 25.65 0 3850
- 0.129192 4 5 tcp 1540 ------- 0 15.218 5.729 41 3209
r 0.129395 4 5 tcp 1540 ------- 0 15.218 5.729 40 3116
+ 0.129856 4 5 tcp 1540 ------- 0 0.1324 20.697 1 3855
- 0.130424 4 5 tcp 1540 ------- 0 17.187 5.828 5 3397
+ 0.130456 4 5 tcp 1540 ------- 0 15.218 5.729 43 3375
+ 0.130488 4 5 tcp 40 ------- 0 24.453 22.1062 0 2172
r 0.130627 4 5 tcp 1540 ------- 0 0.1301 20.674 2 3597
r 0.130659 4 5 ack 40 ------- 0 0.152 5.0 43 3629
r 0.130691 4 5 tcp 40 ------- 0 4.1353 25.65 0 3850
+ 0.131088 4 5 tcp 1540 ------- 0 0.1324 20.697 2 3856
- 0.131656 4 5 ack 40 ------- 0 0.152 5.0 44 3675
- 0.131688 4 5 ack 40 ------- 0 0.152 5.0 45 3715
+ 0.13172 4 5 tcp 1540 ------- 0 15.218 5.729 44 3453
- 0.13172 4 5 ack 40 ------- 0 0.152 5.0 46 3757
- 0.131752 4 5 ack 40 ------- 0 0.152 5.0 47 3795
- 0.131784 4 5 tcp 1540 ------- 0 17.187 5.828 6 3398
r 0.131923 4 5 tcp 1540 ------- 0 15.218 5.729 41 3209
+ 0.132984 4 5 tcp 1540 ------- 0 15.218 5.729 45 3488
- 0.133016 4 5 tcp 1540 ------- 0 0.1324 20.697 1 3855
r 0.133155 4 5 tcp 1540 ------- 0 17.187 5.828 5 3397
r 0.133187 4 5 ack 40 ------- 0 0.152 5.0 44 3675
r 0.133219 4 5 ack 40 ------- 0 0.152 5.0 45 3715
r 0.133251 4 5 ack 40 ------- 0 0.152 5.0 46 3757
r 0.133283 4 5 ack 40 ------- 0 0.152 5.0 47 3795
- 0.134248 4 5 tcp 1540 ------- 0 15.218 5.729 43 3375
r 0.134515 4 5 tcp 1540 ------- 0 17.187 5.828 6 3398
+ 0.134685 4 5 tcp 1540 ------- 0 4.1221 20.815 3 4150
+ 0.134685 4 5 tcp 1540 ------- 0 4.1221 20.815 4 4151
+ 0.134816 4 5 ack 40 ------- 0 0.152 5.0 49 3915
+ 0.134848 4 5 ack 40 ------- 0 0.152 5.0 50 4023
- 0.13548 4 5 tcp 40 ------- 0 24.453 22.1062 0 2172
- 0.135512 4 5 tcp 1540 ------- 0 0.1324 20.697 2 3856
r 0.135747 4 5 tcp 1540 ------- 0 0.1324 20.697 1 3855
+ 0.136112 4 5 ack 40 ------- 0 0.152 5.0 51 4064
+ 0.13668 4 5 tcp 1540 ------- 0 15.218 5.729 46 3513
+ 0.136712 4 5 tcp 40 ------- 0 24.475 22.1084 0 2309
- 0.136744 4 5 tcp 1540 ------- 0 15.218 5.729 44 3453
r 0.136979 4 5 tcp 1540 ------- 0 15.218 5.729 43 3375
r 0.137011 4 5 tcp 40 ------- 0 24.453 22.1062 0 2172
+ 0.137944 4 5 tcp 1540 ------- 0 15.218 5.729 47 3585
- 0.137976 4 5 tcp 1540 ------- 0 15.218 5.729 45 3488
r 0.138243 4 5 tcp 1540 ------- 0 0.1324 20.697 2 3856
+ 0.138608 4 5 ack 40 ------- 0 0.152 5.0 52 4100
+ 0.139208 4 5 tcp 1540 ------- 0 15.218 5.729 48 3697
d 0.139208 4 5 tcp 1540 ------- 0 15.218 5.729 48 3697
- 0.139208 4 5 tcp 1540 ------- 0 4.1221 20.815 3 4150
r 0.139475 4 5 tcp 1540 ------- 0 15.218 5.729 44 3453
+ 0.139805 4 5 tcp 1540 ------- 0 4.1221 20.815 5 4309
+ 0.139805 4 5 tcp 1540 ------- 0 4.1221 20.815 6 4310
d 0.139805 4 5 tcp 1540 ------- 0 4.1221 20.815 6 4310
+ 0.139869 4 5 tcp 1540 ------- 0 4.1234 20.828 1 4314
d 0.139869 4 5 tcp 1540 ------- 0 4.1234 20.828 1 4314
+ 0.139869 4 5 tcp 1540 ------- 0 4.1234 20.828 2 4315
d 0.139869 4 5 tcp 1540 ------- 0 4.1234 20.828 2 4315
+ 0.139872 4 5 ack 40 ------- 0 0.152 5.0 53 4133
d 0.139872 4 5 ack 40 ------- 0 0.152 5.0 53 4133
+ 0.139933 4 5 tcp 1540 ------- 0 4.1353 25.65 1 4320
d 0.139933 4 5 tcp 1540 ------- 0 4.1353 25.65 1 4320
+ 0.139933 4 5 tcp 1540 ------- 0 4.1353 25.65 2 4321
d 0.139933 4 5 tcp 1540 ------- 0 4.1353 25.65 2 4321
+ 0.14044 4 5 tcp 1540 ------- 0 15.218 5.729 49 3699
d 0.14044 4 5 tcp 1540 ------- 0 15.218 5.729 49 3699
- 0.14044 4 5 tcp 1540 ------- 0 4.1221 20.815 4 4151
r 0.140707 4 5 tcp 1540 ------- 0 15.218 5.729 45 3488
+ 0.141104 4 5 tcp 1540 ------- 0 17.1412 25.508 1 3921
+ 0.1412 4 5 ack 40 ------- 0 0.152 5.0 54 4252
d 0.1412 4 5 ack 40 ------- 0 0.152 5.0 54 4252
+ 0.141672 4 5 tcp 1540 ------- 0 15.218 5.729 50 3703
d 0.141672 4 5 tcp 1540 ------- 0 15.218 5.729 50 3703
- 0.141672 4 5 ack 40 ------- 0 0.152 5.0 49 3915
- 0.141704 4 5 ack 40 ------- 0 0.152 5.0 50 4023
+ 0.14173 4 5 ack 40 ------- 0 2.197 5.88 0 3006
- 0.141736 4 5 ack 40 ------- 0 0.152 5.0 51 4064
- 0.141768 4 5 tcp 1540 ------- 0 15.218 5.729 46 3513
r 0.141939 4 5 tcp 1540 ------- 0 4.1221 20.815 3 4150
+ 0.142904 4 5 tcp 1540 ------- 0 15.235 5.746 3 3742
- 0.143 4 5 tcp 40 ------- 0 24.475 22.1084 0 2309
- 0.143032 4 5 tcp 1540 ------- 0 15.218 5.729 47 3585
r 0.143171 4 5 tcp 1540 ------- 0 4.1221 20.815 4 4151
r 0.143203 4 5 ack 40 ------- 0 0.152 5.0 49 3915
+ 0.143224 4 5 tcp 1540 ------- 0 17.1412 25.508 2 3922
r 0.143235 4 5 ack 40 ------- 0 0.152 5.0 50 4023
r 0.143267 4 5 ack 40 ------- 0 0.152 5.0 51 4064
+ 0.144136 4 5 tcp 1540 ------- 0 15.235 5.746 4 3743
- 0.144264 4 5 ack 40 ------- 0 0.152 5.0 52 4100
- 0.144296 4 5 tcp 1540 ------- 0 4.1221 20.815 5 4309
r 0.144499 4 5 tcp 1540 ------- 0 15.218 5.729 46 3513
r 0.144531 4 5 tcp 40 ------- 0 24.475 22.1084 0 2309
+ 0.144796 4 5 tcp 40 ------- 0 1.1220 5.264 0 2912
+ 0.145368 4 5 tcp 1540 ------- 0 15.235 5.746 5 3784
- 0.145528 4 5 tcp 1540 ------- 0 17.1412 25.508 1 3921
+ 0.145632 4 5 ack 40 ------- 0 0.152 5.0 55 4416
r 0.145763 4 5 tcp 1540 ------- 0 15.218 5.729 47 3585
r 0.145795 4 5 ack 40 ------- 0 0.152 5.0 52 4100
+ 0.1466 4 5 tcp 1540 ------- 0 15.235 5.746 6 3785
- 0.14676 4 5 ack 40 ------- 0 2.197 5.88 0 3006
- 0.146792 4 5 tcp 1540 ------- 0 15.235 5.746 3 3742
+ 0.146992 4 5 ack 40 ------- 0 0.152 5.0 56 4461
r 0.147027 4 5 tcp 1540 ------- 0 4.1221 20.815 5 4309
+ 0.147892 4 5 tcp 40 ------- 0 0.1448 25.2 0 4498
- 0.148024 4 5 tcp 1540 ------- 0 17.1412 25.508 2 3922
+ 0.148224 4 5 ack 40 ------- 0 0.152 5.0 57 4509
r 0.148259 4 5 tcp 1540 ------- 0 17.1412 25.508 1 3921
r 0.148291 4 5 ack 40 ------- 0 2.197 5.88 0 3006
+ 0.149256 4 5 tcp 1540 ------- 0 15.218 5.729 51 3829
- 0.149256 4 5 tcp 1540 ------- 0 15.235 5.746 4 3743
r 0.149523 4 5 tcp 1540 ------- 0 15.235 5.746 3 3742
+ 0.150488 4 5 tcp 1540 ------- 0 15.218 5.729 52 3830
- 0.150488 4 5 tcp 40 ------- 0 1.1220 5.264 0 2912
- 0.15052 4 5 tcp 1540 ------- 0 15.235 5.746 5 3784
r 0.150755 4 5 tcp 1540 ------- 0 17.1412 25.508 2 3922
+ 0.15172 4 5 tcp 1540 ------- 0 15.195 5.706 1 3834
- 0.151752 4 5 ack 40 ------- 0 0.152 5.0 55 4416
- 0.151784 4 5 tcp 1540 ------- 0 15.235 5.746 6 3785
+ 0.151952 4 5 ack 40 ------- 0 0.152 5.0 58 4656
r 0.151987 4 5 tcp 1540 ------- 0 15.235 5.746 4 3743
r 0.152019 4 5 tcp 40 ------- 0 1.1220 5.264 0 2912
+ 0.152952 4 5 tcp 1540 ------- 0 15.195 5.706 2 3835
- 0.153016 4 5 ack 40 ------- 0 0.152 5.0 56 4461
- 0.153048 4 5 tcp 40 ------- 0 0.1448 25.2 0 4498
- 0.15308 4 5 ack 40 ------- 0 0.152 5.0 57 4509
- 0.153112 4 5 tcp 1540 ------- 0 15.218 5.729 51 3829
r 0.153251 4 5 tcp 1540 ------- 0 15.235 5.746 5 3784
r 0.153283 4 5 ack 40 ------- 0 0.152 5.0 55 4416
+ 0.154216 4 5 tcp 1540 ------- 0 15.218 5.729 53 3882
+ 0.154344 4 5 ack 40 ------- 0 11.540 5.1192 0 3666
- 0.154344 4 5 tcp 1540 ------- 0 15.218 5.729 52 3830
+ 0.154376 4 5 tcp 40 ------- 0 11.281 5.601 0 3764
r 0.154515 4 5 tcp 1540 ------- 0 15.235 5.746 6 3785
r 0.154547 4 5 ack 40 ------- 0 0.152 5.0 56 4461
r 0.154579 4 5 tcp 40 ------- 0 0.1448 25.2 0 4498
r 0.154611 4 5 ack 40 ------- 0 0.152 5.0 57 4509
- 0.155576 4 5 tcp 1540 ------- 0 15.195 5.706 1 3834
+ 0.155608 4 5 tcp 1540 ------- 0 15.218 5.729 54 3926
r 0.155843 4 5 tcp 1540 ------- 0 15.218 5.729 51 3829
- 0.156808 4 5 ack 40 ------- 0 0.152 5.0 58 4656
+ 0.15684 4 5 tcp 1540 ------- 0 15.218 5.729 55 4002
- 0.15684 4 5 tcp 1540 ------- 0 15.195 5.706 2 3835
+ 0.156944 4 5 tcp 40 ------- 0 17.194 5.835 0 4425
+ 0.157008 4 5 ack 40 ------- 0 0.152 5.0 59 4709
+ 0.157072 4 5 ack 40 ------- 0 0.152 5.0 60 4734
r 0.157075 4 5 tcp 1540 ------- 0 15.218 5.729 52 3830
+ 0.158072 4 5 tcp 1540 ------- 0 15.218 5.729 56 4034
- 0.158072 4 5 tcp 1540 ------- 0 15.218 5.729 53 3882
r 0.158307 4 5 tcp 1540 ------- 0 15.195 5.706 1 3834
+ 0.158336 4 5 ack 40 ------- 0 0.152 5.0 61 4774
r 0.158339 4 5 ack 40 ------- 0 0.152 5.0 58 4656
+ 0.158368 4 5 ack 40 ------- 0 0.152 5.0 62 4823
d 0.158368 4 5 ack 40 ------- 0 0.152 5.0 62 4823
+ 0.159304 4 5 tcp 1540 ------- 0 15.218 5.729 57 4038
d 0.159304 4 5 tcp 1540 ------- 0 15.218 5.729 57 4038
- 0.159304 4 5 ack 40 ------- 0 11.540 5.1192 0 3666
- 0.159336 4 5 tcp 40 ------- 0 11.281 5.601 0 3764
- 0.159368 4 5 tcp 1540 ------- 0 15.218 5.729 54 3926
+ 0.159472 4 5 ack 40 ------- 0 0.152 5.0 63 4913
r 0.159571 4 5 tcp 1540 ------- 0 15.195 5.706 2 3835
+ 0.160568 4 5 tcp 1540 ------- 0 15.218 5.729 58 4072
- 0.1606 4 5 tcp 1540 ------- 0 15.218 5.729 55 4002
+ 0.160632 4 5 ack 40 ------- 0 12.894 22.367 0 4033
+ 0.160664 4 5 tcp 40 ------- 0 15.1399 22.937 0 4181
r 0.160803 4 5 tcp 1540 ------- 0 15.218 5.729 53 3882
r 0.160835 4 5 ack 40 ------- 0 11.540 5.1192 0 3666
r 0.160867 4 5 tcp 40 ------- 0 11.281 5.601 0 3764
- 0.161832 4 5 tcp 40 ------- 0 17.194 5.835 0 4425
- 0.161864 4 5 ack 40 ------- 0 0.152 5.0 59 4709
- 0.161896 4 5 ack 40 ------- 0 0.152 5.0 60 4734
- 0.161928 4 5 tcp 1540 ------- 0 15.218 5.729 56 4034
+ 0.161992 4 5 tcp 1540 ------- 0 15.218 5.729 59 4260
+ 0.162024 4 5 ack 40 ------- 0 15.853 5.1435 0 4262
r 0.162099 4 5 tcp 1540 ------- 0 15.218 5.729 54 3926
+ 0.162332 4 5 ack 40 ------- 0 2.173 5.64 0 3731
+ 0.162396 4 5 ack 40 ------- 0 0.152 5.0 64 4987
+ 0.162556 4 5 tcp 40 ------- 0 19.1202 20.1211 0 4836
d 0.162556 4 5 tcp 40 ------- 0 19.1202 20.1211 0 4836
- 0.16316 4 5 ack 40 ------- 0 0.152 5.0 61 4774
- 0.163192 4 5 ack 40 ------- 0 0.152 5.0 63 4913
- 0.163224 4 5 tcp 1540 ------- 0 15.218 5.729 58 4072
+ 0.163256 4 5 tcp 1540 ------- 0 15.218 5.729 60 4263
+ 0.163264 4 5 ack 40 ------- 0 0.152 5.0 65 5041
r 0.163331 4 5 tcp 1540 ------- 0 15.218 5.729 55 4002
r 0.163363 4 5 tcp 40 ------- 0 17.194 5.835 0 4425
r 0.163395 4 5 ack 40 ------- 0 0.152 5.0 59 4709
r 0.163427 4 5 ack 40 ------- 0 0.152 5.0 60 4734
- 0.164456 4 5 ack 40 ------- 0 12.894 22.367 0 4033
- 0.164488 4 5 tcp 40 ------- 0 15.1399 22.937 0 4181
+ 0.16452 4 5 tcp 1540 ------- 0 15.218 5.729 61 4305
- 0.16452 4 5 tcp 1540 ------- 0 15.218 5.729 59 4260
+ 0.16456 4 5 ack 40 ------- 0 0.152 5.0 66 5101
r 0.164659 4 5 tcp 1540 ------- 0 15.218 5.729 56 4034
r 0.164691 4 5 ack 40 ------- 0 0.152 5.0 61 4774
+ 0.164712 4 5 tcp 40 ------- 0 12.193 5.663 0 4399
r 0.164723 4 5 ack 40 ------- 0 0.152 5.0 63 4913
+ 0.164744 4 5 tcp 40 ------- 0 15.220 5.731 0 4478
+ 0.164808 4 5 tcp 40 ------- 0 11.305 5.625 0 4402
d 0.164808 4 5 tcp 40 ------- 0 11.305 5.625 0 4402
- 0.165752 4 5 ack 40 ------- 0 15.853 5.1435 0 4262
- 0.165784 4 5 ack 40 ------- 0 2.173 5.64 0 3731
- 0.165816 4 5 ack 40 ------- 0 0.152 5.0 64 4987
- 0.165848 4 5 tcp 1540 ------- 0 15.218 5.729 60 4263
r 0.165955 4 5 tcp 1540 ------- 0 15.218 5.729 58 4072