+ 0.00729 25 6 rtProtoDV 26 ------- 0 25.773 6.1492 -1 169
- 0.00729 25 6 rtProtoDV 26 ------- 0 25.773 6.1492 -1 169
+ 0.010617 25 6 rtProtoDV 26 ------- 0 25.773 6.1492 -1 329
- 0.010617 25 6 rtProtoDV 26 ------- 0 25.773 6.1492 -1 329
+ 0.011082 25 6 rtProtoDV 26 ------- 0 25.773 6.1492 -1 369
- 0.011082 25 6 rtProtoDV 26 ------- 0 25.773 6.1492 -1 369
+ 0.011449 25 6 rtProtoDV 26 ------- 0 25.773 6.1492 -1 390
- 0.011449 25 6 rtProtoDV 26 ------- 0 25.773 6.1492 -1 390
+ 0.013061 25 6 rtProtoDV 26 ------- 0 25.773 6.1492 -1 474
- 0.013061 25 6 rtProtoDV 26 ------- 0 25.773 6.1492 -1 474
r 0.0144 25 6 rtProtoDV 26 ------- 0 25.773 6.1492 -1 169
+ 0.015773 25 6 rtProtoDV 26 ------- 0 25.773 6.1492 -1 581
- 0.015773 25 6 rtProtoDV 26 ------- 0 25.773 6.1492 -1 581
+ 0.016763 25 6 rtProtoDV 26 ------- 0 25.773 6.1492 -1 627
- 0.016763 25 6 rtProtoDV 26 ------- 0 25.773 6.1492 -1 627
r 0.017726 25 6 rtProtoDV 26 ------- 0 25.773 6.1492 -1 329
+ 0.017916 25 6 rtProtoDV 26 ------- 0 25.773 6.1492 -1 674
- 0.017916 25 6 rtProtoDV 26 ------- 0 25.773 6.1492 -1 674
r 0.018192 25 6 rtProtoDV 26 ------- 0 25.773 6.1492 -1 369
r 0.018558 25 6 rtProtoDV 26 ------- 0 25.773 6.1492 -1 390
+ 0.018635 25 6 tcp 40 ------- 0 15.310 6.705 0 567
- 0.018635 25 6 tcp 40 ------- 0 15.310 6.705 0 567
+ 0.019255 25 6 rtProtoDV 26 ------- 0 25.773 6.1492 -1 723
- 0.019255 25 6 rtProtoDV 26 ------- 0 25.773 6.1492 -1 723
r 0.020171 25 6 rtProtoDV 26 ------- 0 25.773 6.1492 -1 474
r 0.022882 25 6 rtProtoDV 26 ------- 0 25.773 6.1492 -1 581
r 0.023873 25 6 rtProtoDV 26 ------- 0 25.773 6.1492 -1 627
r 0.025025 25 6 rtProtoDV 26 ------- 0 25.773 6.1492 -1 674
r 0.025756 25 6 tcp 40 ------- 0 15.310 6.705 0 567
r 0.026365 25 6 rtProtoDV 26 ------- 0 25.773 6.1492 -1 723
+ 0.027009 25 6 ack 40 ------- 0 25.158 6.1472 0 919
- 0.027009 25 6 ack 40 ------- 0 25.158 6.1472 0 919
r 0.03413 25 6 ack 40 ------- 0 25.158 6.1472 0 919
+ 0.038456 25 6 ack 40 ------- 0 25.277 10.1084 0 1186
- 0.038456 25 6 ack 40 ------- 0 25.277 10.1084 0 1186
+ 0.040264 25 6 tcp 40 ------- 0 20.589 16.826 0 979
- 0.040264 25 6 tcp 40 ------- 0 20.589 16.826 0 979
+ 0.042451 25 6 ack 40 ------- 0 25.158 6.1472 1 1292
- 0.042451 25 6 ack 40 ------- 0 25.158 6.1472 1 1292
+ 0.042995 25 6 rtProtoDV 26 ------- 0 25.773 6.1492 -1 1308
- 0.042995 25 6 rtProtoDV 26 ------- 0 25.773 6.1492 -1 1308
+ 0.043683 25 6 ack 40 ------- 0 25.158 6.1472 2 1323
- 0.043683 25 6 ack 40 ------- 0 25.158 6.1472 2 1323
r 0.045577 25 6 ack 40 ------- 0 25.277 10.1084 0 1186
+ 0.046596 25 6 ack 40 ------- 0 5.450 9.315 0 1315
- 0.046596 25 6 ack 40 ------- 0 5.450 9.315 0 1315
+ 0.046629 25 6 ack 40 ------- 0 5.438 9.303 0 1316
- 0.046629 25 6 ack 40 ------- 0 5.438 9.303 0 1316
+ 0.0472 25 6 ack 40 ------- 0 25.137 6.1451 0 1410
- 0.0472 25 6 ack 40 ------- 0 25.137 6.1451 0 1410
r 0.047385 25 6 tcp 40 ------- 0 20.589 16.826 0 979
+ 0.048677 25 6 tcp 1540 ------- 0 15.310 6.705 1 1145
- 0.048677 25 6 tcp 1540 ------- 0 15.310 6.705 1 1145
+ 0.048834 25 6 ack 40 ------- 0 25.227 9.1439 0 1453
r 0.049572 25 6 ack 40 ------- 0 25.158 6.1472 1 1292
+ 0.049909 25 6 tcp 1540 ------- 0 15.310 6.705 2 1146
- 0.049909 25 6 ack 40 ------- 0 25.227 9.1439 0 1453
- 0.049941 25 6 tcp 1540 ------- 0 15.310 6.705 2 1146
r 0.050105 25 6 rtProtoDV 26 ------- 0 25.773 6.1492 -1 1308
r 0.050804 25 6 ack 40 ------- 0 25.158 6.1472 2 1323
r 0.053717 25 6 ack 40 ------- 0 5.450 9.315 0 1315
r 0.05375 25 6 ack 40 ------- 0 5.438 9.303 0 1316
r 0.054321 25 6 ack 40 ------- 0 25.137 6.1451 0 1410
+ 0.056536 25 6 tcp 40 ------- 0 22.281 6.898 0 1026
- 0.056536 25 6 tcp 40 ------- 0 22.281 6.898 0 1026
r 0.056998 25 6 tcp 1540 ------- 0 15.310 6.705 1 1145
r 0.05703 25 6 ack 40 ------- 0 25.227 9.1439 0 1453
+ 0.057893 25 6 ack 40 ------- 0 25.158 6.1472 3 1696
- 0.057893 25 6 ack 40 ------- 0 25.158 6.1472 3 1696
r 0.058262 25 6 tcp 1540 ------- 0 15.310 6.705 2 1146
+ 0.059125 25 6 ack 40 ------- 0 25.158 6.1472 4 1731
- 0.059125 25 6 ack 40 ------- 0 25.158 6.1472 4 1731
+ 0.060191 25 6 tcp 40 ------- 0 5.1043 6.430 0 1668
- 0.060191 25 6 tcp 40 ------- 0 5.1043 6.430 0 1668
+ 0.060357 25 6 ack 40 ------- 0 25.158 6.1472 5 1763
- 0.060357 25 6 ack 40 ------- 0 25.158 6.1472 5 1763
+ 0.060678 25 6 tcp 40 ------- 0 20.97 1.882 0 1398
- 0.060678 25 6 tcp 40 ------- 0 20.97 1.882 0 1398
+ 0.061589 25 6 ack 40 ------- 0 25.158 6.1472 6 1793
- 0.061589 25 6 ack 40 ------- 0 25.158 6.1472 6 1793
+ 0.062414 25 6 tcp 40 ------- 0 20.308 10.731 0 1523
- 0.062414 25 6 tcp 40 ------- 0 20.308 10.731 0 1523
+ 0.062885 25 6 ack 40 ------- 0 25.137 6.1451 1 1836
- 0.062885 25 6 ack 40 ------- 0 25.137 6.1451 1 1836
r 0.063657 25 6 tcp 40 ------- 0 22.281 6.898 0 1026
+ 0.063836 25 6 tcp 40 ------- 0 20.89 1.874 0 1558
- 0.063836 25 6 tcp 40 ------- 0 20.89 1.874 0 1558
+ 0.064117 25 6 ack 40 ------- 0 25.137 6.1451 2 1866
- 0.064117 25 6 ack 40 ------- 0 25.137 6.1451 2 1866
r 0.065014 25 6 ack 40 ------- 0 25.158 6.1472 3 1696
+ 0.065619 25 6 ack 40 ------- 0 25.260 10.1067 0 1913
- 0.065619 25 6 ack 40 ------- 0 25.260 10.1067 0 1913
r 0.066246 25 6 ack 40 ------- 0 25.158 6.1472 4 1731
r 0.067312 25 6 tcp 40 ------- 0 5.1043 6.430 0 1668
r 0.067478 25 6 ack 40 ------- 0 25.158 6.1472 5 1763
r 0.067799 25 6 tcp 40 ------- 0 20.97 1.882 0 1398
r 0.06871 25 6 ack 40 ------- 0 25.158 6.1472 6 1793
r 0.069535 25 6 tcp 40 ------- 0 20.308 10.731 0 1523
+ 0.069685 25 6 ack 40 ------- 0 14.717 6.1157 0 1125
- 0.069685 25 6 ack 40 ------- 0 14.717 6.1157 0 1125
r 0.070006 25 6 ack 40 ------- 0 25.137 6.1451 1 1836
r 0.070957 25 6 tcp 40 ------- 0 20.89 1.874 0 1558
r 0.071238 25 6 ack 40 ------- 0 25.137 6.1451 2 1866
+ 0.072181 25 6 tcp 40 ------- 0 15.279 6.674 0 1423
- 0.072181 25 6 tcp 40 ------- 0 15.279 6.674 0 1423
r 0.07274 25 6 ack 40 ------- 0 25.260 10.1067 0 1913
+ 0.073228 25 6 ack 40 ------- 0 25.277 10.1084 1 2161
- 0.073228 25 6 ack 40 ------- 0 25.277 10.1084 1 2161
+ 0.07446 25 6 ack 40 ------- 0 25.158 6.1472 7 2198
- 0.07446 25 6 ack 40 ------- 0 25.158 6.1472 7 2198
+ 0.075692 25 6 ack 40 ------- 0 25.158 6.1472 8 2237
- 0.075692 25 6 ack 40 ------- 0 25.158 6.1472 8 2237
r 0.076806 25 6 ack 40 ------- 0 14.717 6.1157 0 1125
+ 0.077414 25 6 tcp 1540 ------- 0 20.55 1.840 1 1798
- 0.077414 25 6 tcp 1540 ------- 0 20.55 1.840 1 1798
+ 0.078156 25 6 ack 40 ------- 0 25.158 6.1472 9 2320
- 0.078646 25 6 ack 40 ------- 0 25.158 6.1472 9 2320
r 0.079302 25 6 tcp 40 ------- 0 15.279 6.674 0 1423
+ 0.079388 25 6 ack 40 ------- 0 25.158 6.1472 10 2371
- 0.079388 25 6 ack 40 ------- 0 25.158 6.1472 10 2371
r 0.080349 25 6 ack 40 ------- 0 25.277 10.1084 1 2161
r 0.081581 25 6 ack 40 ------- 0 25.158 6.1472 7 2198
+ 0.081884 25 6 ack 40 ------- 0 25.158 6.1472 11 2454
- 0.081884 25 6 ack 40 ------- 0 25.158 6.1472 11 2454
+ 0.082342 25 6 tcp 1540 ------- 0 20.55 1.840 2 1799
- 0.082342 25 6 tcp 1540 ------- 0 20.55 1.840 2 1799
r 0.082813 25 6 ack 40 ------- 0 25.158 6.1472 8 2237
+ 0.083116 25 6 ack 40 ------- 0 25.158 6.1472 12 2497
- 0.083574 25 6 ack 40 ------- 0 25.158 6.1472 12 2497
+ 0.084397 25 6 ack 40 ------- 0 5.450 9.315 1 2439
- 0.084397 25 6 ack 40 ------- 0 5.450 9.315 1 2439
+ 0.08558 25 6 ack 40 ------- 0 25.158 6.1472 13 2575
- 0.08558 25 6 ack 40 ------- 0 25.158 6.1472 13 2575
r 0.085735 25 6 tcp 1540 ------- 0 20.55 1.840 1 1798
r 0.085767 25 6 ack 40 ------- 0 25.158 6.1472 9 2320
r 0.086509 25 6 ack 40 ------- 0 25.158 6.1472 10 2371
+ 0.086812 25 6 ack 40 ------- 0 25.158 6.1472 14 2620
- 0.086812 25 6 ack 40 ------- 0 25.158 6.1472 14 2620
+ 0.086893 25 6 tcp 1540 ------- 0 5.1043 6.430 1 2484
- 0.086893 25 6 tcp 1540 ------- 0 5.1043 6.430 1 2484
+ 0.08727 25 6 tcp 1540 ------- 0 20.87 1.872 1 1805
+ 0.088125 25 6 tcp 1540 ------- 0 5.1043 6.430 2 2485
- 0.088125 25 6 tcp 1540 ------- 0 20.87 1.872 1 1805
+ 0.088157 25 6 ack 40 ------- 0 5.450 9.315 2 2559
r 0.089005 25 6 ack 40 ------- 0 25.158 6.1472 11 2454
+ 0.089308 25 6 ack 40 ------- 0 25.137 6.1451 3 2708
- 0.089357 25 6 tcp 1540 ------- 0 5.1043 6.430 2 2485
+ 0.09054 25 6 ack 40 ------- 0 25.137 6.1451 4 2756
- 0.090589 25 6 ack 40 ------- 0 5.450 9.315 2 2559
- 0.090621 25 6 ack 40 ------- 0 25.137 6.1451 3 2708
- 0.090653 25 6 ack 40 ------- 0 25.137 6.1451 4 2756
r 0.090663 25 6 tcp 1540 ------- 0 20.55 1.840 2 1799
r 0.090695 25 6 ack 40 ------- 0 25.158 6.1472 12 2497
r 0.091518 25 6 ack 40 ------- 0 5.450 9.315 1 2439
+ 0.091772 25 6 ack 40 ------- 0 25.227 9.1439 1 2789
- 0.091772 25 6 ack 40 ------- 0 25.227 9.1439 1 2789
+ 0.091821 25 6 ack 40 ------- 0 5.438 9.303 1 2686
- 0.091821 25 6 ack 40 ------- 0 5.438 9.303 1 2686
+ 0.092198 25 6 tcp 1540 ------- 0 20.87 1.872 2 1806
- 0.092198 25 6 tcp 1540 ------- 0 20.87 1.872 2 1806
+ 0.092326 25 6 tcp 40 ------- 0 20.111 1.896 0 1810
+ 0.092454 25 6 tcp 40 ------- 0 20.198 6.782 0 1911
+ 0.092582 25 6 tcp 40 ------- 0 20.224 6.808 0 1915
r 0.092701 25 6 ack 40 ------- 0 25.158 6.1472 13 2575
+ 0.093004 25 6 ack 40 ------- 0 25.137 6.1451 5 2821
- 0.09343 25 6 tcp 40 ------- 0 20.111 1.896 0 1810
- 0.093462 25 6 tcp 40 ------- 0 20.198 6.782 0 1911
- 0.093494 25 6 tcp 40 ------- 0 20.224 6.808 0 1915
- 0.093526 25 6 ack 40 ------- 0 25.137 6.1451 5 2821
r 0.093933 25 6 ack 40 ------- 0 25.158 6.1472 14 2620
+ 0.094236 25 6 ack 40 ------- 0 25.137 6.1451 6 2853
- 0.094236 25 6 ack 40 ------- 0 25.137 6.1451 6 2853
r 0.095214 25 6 tcp 1540 ------- 0 5.1043 6.430 1 2484
+ 0.0955 25 6 ack 40 ------- 0 25.227 9.1439 2 2886
- 0.0955 25 6 ack 40 ------- 0 25.227 9.1439 2 2886
+ 0.095549 25 6 ack 40 ------- 0 5.438 9.303 2 2804
- 0.095549 25 6 ack 40 ------- 0 5.438 9.303 2 2804
+ 0.095706 25 6 ack 40 ------- 0 15.911 6.1236 0 1903
- 0.095706 25 6 ack 40 ------- 0 15.911 6.1236 0 1903
r 0.096446 25 6 tcp 1540 ------- 0 20.87 1.872 1 1805
+ 0.096732 25 6 ack 40 ------- 0 25.277 10.1084 2 2925
- 0.096732 25 6 ack 40 ------- 0 25.277 10.1084 2 2925
+ 0.096764 25 6 ack 40 ------- 0 25.196 9.1408 0 2931
- 0.096764 25 6 ack 40 ------- 0 25.196 9.1408 0 2931
r 0.097678 25 6 tcp 1540 ------- 0 5.1043 6.430 2 2485
r 0.09771 25 6 ack 40 ------- 0 5.450 9.315 2 2559
r 0.097742 25 6 ack 40 ------- 0 25.137 6.1451 3 2708
r 0.097774 25 6 ack 40 ------- 0 25.137 6.1451 4 2756
+ 0.098202 25 6 ack 40 ------- 0 15.882 6.1207 0 1961
- 0.098202 25 6 ack 40 ------- 0 15.882 6.1207 0 1961
r 0.098893 25 6 ack 40 ------- 0 25.227 9.1439 1 2789
r 0.098942 25 6 ack 40 ------- 0 5.438 9.303 1 2686
+ 0.099434 25 6 tcp 1540 ------- 0 15.310 6.705 3 1963
- 0.099434 25 6 tcp 1540 ------- 0 15.310 6.705 3 1963
r 0.100519 25 6 tcp 1540 ------- 0 20.87 1.872 2 1806
+ 0.100524 25 6 ack 40 ------- 0 25.158 6.1472 15 3063
r 0.100551 25 6 tcp 40 ------- 0 20.111 1.896 0 1810
r 0.100583 25 6 tcp 40 ------- 0 20.198 6.782 0 1911
r 0.100615 25 6 tcp 40 ------- 0 20.224 6.808 0 1915
r 0.100647 25 6 ack 40 ------- 0 25.137 6.1451 5 2821
+ 0.100666 25 6 tcp 1540 ------- 0 15.310 6.705 4 1964
- 0.100666 25 6 ack 40 ------- 0 25.158 6.1472 15 3063
- 0.100698 25 6 tcp 1540 ------- 0 15.310 6.705 4 1964
r 0.101357 25 6 ack 40 ------- 0 25.137 6.1451 6 2853
+ 0.101756 25 6 ack 40 ------- 0 25.158 6.1472 16 3117
- 0.10193 25 6 ack 40 ------- 0 25.158 6.1472 16 3117
r 0.102621 25 6 ack 40 ------- 0 25.227 9.1439 2 2886
r 0.10267 25 6 ack 40 ------- 0 5.438 9.303 2 2804
r 0.102827 25 6 ack 40 ------- 0 15.911 6.1236 0 1903
+ 0.10302 25 6 ack 40 ------- 0 25.158 6.1472 17 3160
- 0.10302 25 6 ack 40 ------- 0 25.158 6.1472 17 3160
+ 0.103162 25 6 tcp 1540 ------- 0 15.310 6.705 5 2010
- 0.103162 25 6 tcp 1540 ------- 0 15.310 6.705 5 2010
+ 0.103767 25 6 tcp 40 ------- 0 5.1123 9.639 0 3069
r 0.103853 25 6 ack 40 ------- 0 25.277 10.1084 2 2925
r 0.103885 25 6 ack 40 ------- 0 25.196 9.1408 0 2931
+ 0.104252 25 6 ack 40 ------- 0 25.158 6.1472 18 3208
+ 0.104394 25 6 tcp 1540 ------- 0 15.310 6.705 6 2011
- 0.104394 25 6 tcp 40 ------- 0 5.1123 9.639 0 3069
- 0.104426 25 6 ack 40 ------- 0 25.158 6.1472 18 3208
- 0.104458 25 6 tcp 1540 ------- 0 15.310 6.705 6 2011
r 0.105323 25 6 ack 40 ------- 0 15.882 6.1207 0 1961
+ 0.105516 25 6 ack 40 ------- 0 25.158 6.1472 19 3244
- 0.10569 25 6 ack 40 ------- 0 25.158 6.1472 19 3244
+ 0.106748 25 6 ack 40 ------- 0 25.158 6.1472 20 3280
- 0.106748 25 6 ack 40 ------- 0 25.158 6.1472 20 3280
r 0.107755 25 6 tcp 1540 ------- 0 15.310 6.705 3 1963
r 0.107787 25 6 ack 40 ------- 0 25.158 6.1472 15 3063
+ 0.10798 25 6 ack 40 ------- 0 25.158 6.1472 21 3317
- 0.10798 25 6 ack 40 ------- 0 25.158 6.1472 21 3317
+ 0.108061 25 6 ack 40 ------- 0 5.456 9.321 0 3229
- 0.108061 25 6 ack 40 ------- 0 5.456 9.321 0 3229
r 0.109019 25 6 tcp 1540 ------- 0 15.310 6.705 4 1964
r 0.109051 25 6 ack 40 ------- 0 25.158 6.1472 16 3117
+ 0.109212 25 6 ack 40 ------- 0 25.158 6.1472 22 3357
- 0.109212 25 6 ack 40 ------- 0 25.158 6.1472 22 3357
r 0.110141 25 6 ack 40 ------- 0 25.158 6.1472 17 3160
+ 0.110476 25 6 ack 40 ------- 0 25.158 6.1472 23 3392
- 0.110476 25 6 ack 40 ------- 0 25.158 6.1472 23 3392
r 0.111483 25 6 tcp 1540 ------- 0 15.310 6.705 5 2010
r 0.111515 25 6 tcp 40 ------- 0 5.1123 9.639 0 3069
r 0.111547 25 6 ack 40 ------- 0 25.158 6.1472 18 3208
+ 0.111708 25 6 ack 40 ------- 0 25.158 6.1472 24 3443
- 0.111708 25 6 ack 40 ------- 0 25.158 6.1472 24 3443
+ 0.11255 25 6 ack 40 ------- 0 20.743 1.1863 0 2146
- 0.11255 25 6 ack 40 ------- 0 20.743 1.1863 0 2146
r 0.112779 25 6 tcp 1540 ------- 0 15.310 6.705 6 2011
r 0.112811 25 6 ack 40 ------- 0 25.158 6.1472 19 3244
+ 0.11294 25 6 ack 40 ------- 0 25.158 6.1472 25 3476
- 0.11294 25 6 ack 40 ------- 0 25.158 6.1472 25 3476
r 0.113869 25 6 ack 40 ------- 0 25.158 6.1472 20 3280
+ 0.114172 25 6 ack 40 ------- 0 25.158 6.1472 26 3500
- 0.114172 25 6 ack 40 ------- 0 25.158 6.1472 26 3500
r 0.115101 25 6 ack 40 ------- 0 25.158 6.1472 21 3317
r 0.115182 25 6 ack 40 ------- 0 5.456 9.321 0 3229
+ 0.115404 25 6 ack 40 ------- 0 25.158 6.1472 27 3543
- 0.115404 25 6 ack 40 ------- 0 25.158 6.1472 27 3543
r 0.116333 25 6 ack 40 ------- 0 25.158 6.1472 22 3357
+ 0.116636 25 6 ack 40 ------- 0 25.158 6.1472 28 3568
- 0.116636 25 6 ack 40 ------- 0 25.158 6.1472 28 3568
r 0.117597 25 6 ack 40 ------- 0 25.158 6.1472 23 3392
+ 0.117868 25 6 ack 40 ------- 0 25.158 6.1472 29 3600
- 0.117868 25 6 ack 40 ------- 0 25.158 6.1472 29 3600
r 0.118829 25 6 ack 40 ------- 0 25.158 6.1472 24 3443
+ 0.1191 25 6 ack 40 ------- 0 25.158 6.1472 30 3634
- 0.1191 25 6 ack 40 ------- 0 25.158 6.1472 30 3634
r 0.119671 25 6 ack 40 ------- 0 20.743 1.1863 0 2146
r 0.120061 25 6 ack 40 ------- 0 25.158 6.1472 25 3476
+ 0.120396 25 6 ack 40 ------- 0 25.137 6.1451 7 3679
- 0.120396 25 6 ack 40 ------- 0 25.137 6.1451 7 3679
r 0.121293 25 6 ack 40 ------- 0 25.158 6.1472 26 3500
+ 0.121628 25 6 ack 40 ------- 0 25.137 6.1451 8 3725
- 0.121628 25 6 ack 40 ------- 0 25.137 6.1451 8 3725
r 0.122525 25 6 ack 40 ------- 0 25.158 6.1472 27 3543
+ 0.122662 25 6 tcp 40 ------- 0 20.593 16.830 0 2508
- 0.122662 25 6 tcp 40 ------- 0 20.593 16.830 0 2508
+ 0.12286 25 6 ack 40 ------- 0 25.137 6.1451 9 3760
- 0.12286 25 6 ack 40 ------- 0 25.137 6.1451 9 3760
+ 0.123046 25 6 tcp 40 ------- 0 20.275 9.928 0 2628
- 0.123046 25 6 tcp 40 ------- 0 20.275 9.928 0 2628
+ 0.123686 25 6 tcp 40 ------- 0 20.253 6.837 0 3085
- 0.123686 25 6 tcp 40 ------- 0 20.253 6.837 0 3085
r 0.123757 25 6 ack 40 ------- 0 25.158 6.1472 28 3568
+ 0.123814 25 6 tcp 40 ------- 0 20.231 6.815 0 3276
- 0.123814 25 6 tcp 40 ------- 0 20.231 6.815 0 3276
+ 0.124092 25 6 ack 40 ------- 0 25.137 6.1451 10 3801
- 0.124092 25 6 ack 40 ------- 0 25.137 6.1451 10 3801
r 0.124989 25 6 ack 40 ------- 0 25.158 6.1472 29 3600
+ 0.125452 25 6 ack 40 ------- 0 25.137 6.1451 11 3864
- 0.125452 25 6 ack 40 ------- 0 25.137 6.1451 11 3864
r 0.126221 25 6 ack 40 ------- 0 25.158 6.1472 30 3634
+ 0.126605 25 6 tcp 1540 ------- 0 5.1043 6.430 3 3746
- 0.126605 25 6 tcp 1540 ------- 0 5.1043 6.430 3 3746
+ 0.126684 25 6 ack 40 ------- 0 25.137 6.1451 12 3912
r 0.127517 25 6 ack 40 ------- 0 25.137 6.1451 7 3679
+ 0.127837 25 6 tcp 1540 ------- 0 5.1043 6.430 4 3747
- 0.127837 25 6 ack 40 ------- 0 25.137 6.1451 12 3912
- 0.127869 25 6 tcp 1540 ------- 0 5.1043 6.430 4 3747
+ 0.127948 25 6 ack 40 ------- 0 25.137 6.1451 13 3958
+ 0.128742 25 6 tcp 1540 ------- 0 20.589 16.826 1 3307
r 0.128749 25 6 ack 40 ------- 0 25.137 6.1451 8 3725
+ 0.129069 25 6 tcp 1540 ------- 0 5.1043 6.430 5 3748
- 0.129101 25 6 ack 40 ------- 0 25.137 6.1451 13 3958
- 0.129133 25 6 tcp 1540 ------- 0 20.589 16.826 1 3307
+ 0.12918 25 6 ack 40 ------- 0 25.137 6.1451 14 3992
r 0.129783 25 6 tcp 40 ------- 0 20.593 16.830 0 2508
r 0.129981 25 6 ack 40 ------- 0 25.137 6.1451 9 3760
r 0.130167 25 6 tcp 40 ------- 0 20.275 9.928 0 2628
+ 0.130301 25 6 tcp 1540 ------- 0 5.1043 6.430 6 3749
- 0.130365 25 6 tcp 1540 ------- 0 5.1043 6.430 5 3748
+ 0.130429 25 6 ack 40 ------- 0 5.437 9.302 0 3934
r 0.130807 25 6 tcp 40 ------- 0 20.253 6.837 0 3085
r 0.130935 25 6 tcp 40 ------- 0 20.231 6.815 0 3276
r 0.131213 25 6 ack 40 ------- 0 25.137 6.1451 10 3801
- 0.131597 25 6 ack 40 ------- 0 25.137 6.1451 14 3992
- 0.131629 25 6 tcp 1540 ------- 0 5.1043 6.430 6 3749
r 0.132573 25 6 ack 40 ------- 0 25.137 6.1451 11 3864
- 0.132861 25 6 ack 40 ------- 0 5.437 9.302 0 3934
+ 0.13367 25 6 tcp 1540 ------- 0 20.589 16.826 2 3308
- 0.13367 25 6 tcp 1540 ------- 0 20.589 16.826 2 3308
r 0.134926 25 6 tcp 1540 ------- 0 5.1043 6.430 3 3746
r 0.134958 25 6 ack 40 ------- 0 25.137 6.1451 12 3912
+ 0.135372 25 6 ack 40 ------- 0 25.277 10.1084 3 4180
- 0.135372 25 6 ack 40 ------- 0 25.277 10.1084 3 4180
r 0.13619 25 6 tcp 1540 ------- 0 5.1043 6.430 4 3747
r 0.136222 25 6 ack 40 ------- 0 25.137 6.1451 13 3958
+ 0.136636 25 6 ack 40 ------- 0 25.158 6.1472 31 4215
- 0.136636 25 6 ack 40 ------- 0 25.158 6.1472 31 4215
r 0.137454 25 6 tcp 1540 ------- 0 20.589 16.826 1 3307
+ 0.137868 25 6 ack 40 ------- 0 25.158 6.1472 32 4250
- 0.137868 25 6 ack 40 ------- 0 25.158 6.1472 32 4250
r 0.138686 25 6 tcp 1540 ------- 0 5.1043 6.430 5 3748
r 0.138718 25 6 ack 40 ------- 0 25.137 6.1451 14 3992
+ 0.139164 25 6 ack 40 ------- 0 25.158 6.1472 33 4281
- 0.139164 25 6 ack 40 ------- 0 25.158 6.1472 33 4281
r 0.13995 25 6 tcp 1540 ------- 0 5.1043 6.430 6 3749
r 0.139982 25 6 ack 40 ------- 0 5.437 9.302 0 3934
+ 0.140396 25 6 ack 40 ------- 0 25.158 6.1472 34 4330
- 0.140396 25 6 ack 40 ------- 0 25.158 6.1472 34 4330
r 0.141991 25 6 tcp 1540 ------- 0 20.589 16.826 2 3308
r 0.142493 25 6 ack 40 ------- 0 25.277 10.1084 3 4180
+ 0.14286 25 6 ack 40 ------- 0 25.158 6.1472 35 4404
- 0.14286 25 6 ack 40 ------- 0 25.158 6.1472 35 4404
r 0.143757 25 6 ack 40 ------- 0 25.158 6.1472 31 4215
+ 0.144092 25 6 ack 40 ------- 0 25.158 6.1472 36 4446
- 0.144092 25 6 ack 40 ------- 0 25.158 6.1472 36 4446
r 0.144989 25 6 ack 40 ------- 0 25.158 6.1472 32 4250
r 0.146285 25 6 ack 40 ------- 0 25.158 6.1472 33 4281
+ 0.146588 25 6 ack 40 ------- 0 25.158 6.1472 37 4549
- 0.146588 25 6 ack 40 ------- 0 25.158 6.1472 37 4549
r 0.147517 25 6 ack 40 ------- 0 25.158 6.1472 34 4330
+ 0.14782 25 6 ack 40 ------- 0 25.158 6.1472 38 4597
- 0.14782 25 6 ack 40 ------- 0 25.158 6.1472 38 4597
+ 0.149052 25 6 ack 40 ------- 0 25.277 10.1084 4 4639
- 0.149052 25 6 ack 40 ------- 0 25.277 10.1084 4 4639
+ 0.149101 25 6 ack 40 ------- 0 5.450 9.315 3 4521
- 0.149101 25 6 ack 40 ------- 0 5.450 9.315 3 4521
r 0.149981 25 6 ack 40 ------- 0 25.158 6.1472 35 4404
+ 0.150316 25 6 ack 40 ------- 0 25.158 6.1472 39 4697
- 0.150316 25 6 ack 40 ------- 0 25.158 6.1472 39 4697
r 0.151213 25 6 ack 40 ------- 0 25.158 6.1472 36 4446
+ 0.151231 25 6 tcp 1540 ------- 0 15.279 6.674 1 3200
- 0.151231 25 6 tcp 1540 ------- 0 15.279 6.674 1 3200
+ 0.151548 25 6 ack 40 ------- 0 25.158 6.1472 40 4721
+ 0.152463 25 6 tcp 1540 ------- 0 15.279 6.674 2 3201
- 0.152463 25 6 ack 40 ------- 0 25.158 6.1472 40 4721
- 0.152495 25 6 tcp 1540 ------- 0 15.279 6.674 2 3201
+ 0.15278 25 6 ack 40 ------- 0 25.158 6.1472 41 4755
+ 0.152797 25 6 ack 40 ------- 0 5.450 9.315 4 4669
+ 0.153367 25 6 tcp 40 ------- 0 5.1038 6.425 0 4692
r 0.153709 25 6 ack 40 ------- 0 25.158 6.1472 37 4549
- 0.153727 25 6 ack 40 ------- 0 25.158 6.1472 41 4755
- 0.153759 25 6 ack 40 ------- 0 5.450 9.315 4 4669
- 0.153791 25 6 tcp 40 ------- 0 5.1038 6.425 0 4692
+ 0.154012 25 6 ack 40 ------- 0 25.158 6.1472 42 4797
- 0.154012 25 6 ack 40 ------- 0 25.158 6.1472 42 4797
r 0.154941 25 6 ack 40 ------- 0 25.158 6.1472 38 4597
r 0.156173 25 6 ack 40 ------- 0 25.277 10.1084 4 4639
r 0.156222 25 6 ack 40 ------- 0 5.450 9.315 3 4521
r 0.157437 25 6 ack 40 ------- 0 25.158 6.1472 39 4697
+ 0.157708 25 6 ack 40 ------- 0 25.158 6.1472 43 4934
- 0.157708 25 6 ack 40 ------- 0 25.158 6.1472 43 4934
+ 0.158972 25 6 ack 40 ------- 0 25.158 6.1472 44 4967
- 0.158972 25 6 ack 40 ------- 0 25.158 6.1472 44 4967
r 0.159552 25 6 tcp 1540 ------- 0 15.279 6.674 1 3200
r 0.159584 25 6 ack 40 ------- 0 25.158 6.1472 40 4721
+ 0.160236 25 6 ack 40 ------- 0 25.158 6.1472 45 5014
- 0.160236 25 6 ack 40 ------- 0 25.158 6.1472 45 5014
r 0.160816 25 6 tcp 1540 ------- 0 15.279 6.674 2 3201
r 0.160848 25 6 ack 40 ------- 0 25.158 6.1472 41 4755
r 0.16088 25 6 ack 40 ------- 0 5.450 9.315 4 4669
r 0.160912 25 6 tcp 40 ------- 0 5.1038 6.425 0 4692
r 0.161133 25 6 ack 40 ------- 0 25.158 6.1472 42 4797
+ 0.161532 25 6 ack 40 ------- 0 25.158 6.1472 46 5084
- 0.161532 25 6 ack 40 ------- 0 25.158 6.1472 46 5084
+ 0.162717 25 6 ack 40 ------- 0 5.450 9.315 5 4993
- 0.162717 25 6 ack 40 ------- 0 5.450 9.315 5 4993
+ 0.162764 25 6 ack 40 ------- 0 25.158 6.1472 47 5127
- 0.162764 25 6 ack 40 ------- 0 25.158 6.1472 47 5127
+ 0.163949 25 6 ack 40 ------- 0 5.450 9.315 6 5045
- 0.163949 25 6 ack 40 ------- 0 5.450 9.315 6 5045
+ 0.163996 25 6 ack 40 ------- 0 25.158 6.1472 48 5184
- 0.163996 25 6 ack 40 ------- 0 25.158 6.1472 48 5184
r 0.164829 25 6 ack 40 ------- 0 25.158 6.1472 43 4934
+ 0.16526 25 6 ack 40 ------- 0 25.158 6.1472 49 5227
- 0.16526 25 6 ack 40 ------- 0 25.158 6.1472 49 5227
r 0.166093 25 6 ack 40 ------- 0 25.158 6.1472 44 4967
+ 0.166492 25 6 ack 40 ------- 0 25.196 9.1408 1 5283
- 0.166492 25 6 ack 40 ------- 0 25.196 9.1408 1 5283
r 0.167357 25 6 ack 40 ------- 0 25.158 6.1472 45 5014
+ 0.167724 25 6 ack 40 ------- 0 25.158 6.1472 50 5327
- 0.167724 25 6 ack 40 ------- 0 25.158 6.1472 50 5327
+ 0.168294 25 6 tcp 1540 ------- 0 20.97 1.882 1 3537
- 0.168294 25 6 tcp 1540 ------- 0 20.97 1.882 1 3537
r 0.168653 25 6 ack 40 ------- 0 25.158 6.1472 46 5084
+ 0.168956 25 6 ack 40 ------- 0 25.196 9.1408 2 5363
- 0.169526 25 6 ack 40 ------- 0 25.196 9.1408 2 5363
+ 0.169807 25 6 tcp 40 ------- 0 14.117 6.614 0 3286
- 0.169807 25 6 tcp 40 ------- 0 14.117 6.614 0 3286
r 0.169838 25 6 ack 40 ------- 0 5.450 9.315 5 4993
+ 0.169839 25 6 ack 40 ------- 0 14.717 6.1157 1 3367
- 0.169839 25 6 ack 40 ------- 0 14.717 6.1157 1 3367
r 0.169885 25 6 ack 40 ------- 0 25.158 6.1472 47 5127
+ 0.17022 25 6 ack 40 ------- 0 25.137 6.1451 15 5419
- 0.17022 25 6 ack 40 ------- 0 25.137 6.1451 15 5419
r 0.17107 25 6 ack 40 ------- 0 5.450 9.315 6 5045
r 0.171117 25 6 ack 40 ------- 0 25.158 6.1472 48 5184
+ 0.171452 25 6 ack 40 ------- 0 25.137 6.1451 16 5500
- 0.171452 25 6 ack 40 ------- 0 25.137 6.1451 16 5500
r 0.172381 25 6 ack 40 ------- 0 25.158 6.1472 49 5227
+ 0.172684 25 6 ack 40 ------- 0 25.137 6.1451 17 5573
- 0.172684 25 6 ack 40 ------- 0 25.137 6.1451 17 5573
+ 0.173222 25 6 tcp 1540 ------- 0 20.97 1.882 2 3538
- 0.173222 25 6 tcp 1540 ------- 0 20.97 1.882 2 3538
r 0.173613 25 6 ack 40 ------- 0 25.196 9.1408 1 5283
+ 0.173916 25 6 ack 40 ------- 0 25.137 6.1451 18 5615
- 0.174454 25 6 ack 40 ------- 0 25.137 6.1451 18 5615
r 0.174845 25 6 ack 40 ------- 0 25.158 6.1472 50 5327
+ 0.175148 25 6 ack 40 ------- 0 25.137 6.1451 19 5660
- 0.175148 25 6 ack 40 ------- 0 25.137 6.1451 19 5660
+ 0.17638 25 6 ack 40 ------- 0 25.137 6.1451 20 5703
- 0.17638 25 6 ack 40 ------- 0 25.137 6.1451 20 5703
+ 0.176461 25 6 tcp 1540 ------- 0 5.1123 9.639 1 5539
- 0.176461 25 6 tcp 1540 ------- 0 5.1123 9.639 1 5539
r 0.176615 25 6 tcp 1540 ------- 0 20.97 1.882 1 3537
r 0.176647 25 6 ack 40 ------- 0 25.196 9.1408 2 5363
r 0.176928 25 6 tcp 40 ------- 0 14.117 6.614 0 3286
r 0.17696 25 6 ack 40 ------- 0 14.717 6.1157 1 3367
r 0.177341 25 6 ack 40 ------- 0 25.137 6.1451 15 5419
+ 0.177693 25 6 tcp 1540 ------- 0 5.1123 9.639 2 5540
- 0.177693 25 6 tcp 1540 ------- 0 5.1123 9.639 2 5540
r 0.178573 25 6 ack 40 ------- 0 25.137 6.1451 16 5500
+ 0.17894 25 6 ack 40 ------- 0 25.137 6.1451 21 5783
- 0.17894 25 6 ack 40 ------- 0 25.137 6.1451 21 5783
r 0.179805 25 6 ack 40 ------- 0 25.137 6.1451 17 5573
+ 0.180172 25 6 ack 40 ------- 0 25.137 6.1451 22 5823
- 0.180172 25 6 ack 40 ------- 0 25.137 6.1451 22 5823
r 0.181543 25 6 tcp 1540 ------- 0 20.97 1.882 2 3538
r 0.181575 25 6 ack 40 ------- 0 25.137 6.1451 18 5615
+ 0.182191 25 6 tcp 40 ------- 0 14.171 6.668 0 3970
- 0.182191 25 6 tcp 40 ------- 0 14.171 6.668 0 3970
r 0.182269 25 6 ack 40 ------- 0 25.137 6.1451 19 5660
+ 0.182668 25 6 ack 40 ------- 0 25.137 6.1451 23 5895
- 0.182668 25 6 ack 40 ------- 0 25.137 6.1451 23 5895
r 0.183501 25 6 ack 40 ------- 0 25.137 6.1451 20 5703
+ 0.1839 25 6 ack 40 ------- 0 25.137 6.1451 24 5930
- 0.1839 25 6 ack 40 ------- 0 25.137 6.1451 24 5930
r 0.184782 25 6 tcp 1540 ------- 0 5.1123 9.639 1 5539
+ 0.185117 25 6 ack 40 ------- 0 5.456 9.321 1 5876
- 0.185117 25 6 ack 40 ------- 0 5.456 9.321 1 5876
+ 0.185164 25 6 ack 40 ------- 0 25.137 6.1451 25 5979
- 0.185164 25 6 ack 40 ------- 0 25.137 6.1451 25 5979
+ 0.185951 25 6 ack 40 ------- 0 15.911 6.1236 1 4177
- 0.185951 25 6 ack 40 ------- 0 15.911 6.1236 1 4177
r 0.186014 25 6 tcp 1540 ------- 0 5.1123 9.639 2 5540
r 0.186061 25 6 ack 40 ------- 0 25.137 6.1451 21 5783
+ 0.186396 25 6 ack 40 ------- 0 25.137 6.1451 26 6018
- 0.186396 25 6 ack 40 ------- 0 25.137 6.1451 26 6018
+ 0.187215 25 6 ack 40 ------- 0 15.911 6.1236 2 4213
- 0.187215 25 6 ack 40 ------- 0 15.911 6.1236 2 4213
r 0.187293 25 6 ack 40 ------- 0 25.137 6.1451 22 5823
+ 0.18766 25 6 ack 40 ------- 0 25.137 6.1451 27 6050
- 0.18766 25 6 ack 40 ------- 0 25.137 6.1451 27 6050
+ 0.188006 25 6 tcp 1540 ------- 0 20.89 1.874 1 3673
- 0.188006 25 6 tcp 1540 ------- 0 20.89 1.874 1 3673
+ 0.188479 25 6 ack 40 ------- 0 15.882 6.1207 1 4247
+ 0.188924 25 6 ack 40 ------- 0 25.277 10.1084 5 6090
- 0.189238 25 6 ack 40 ------- 0 15.882 6.1207 1 4247
- 0.18927 25 6 ack 40 ------- 0 25.277 10.1084 5 6090
r 0.189312 25 6 tcp 40 ------- 0 14.171 6.668 0 3970
+ 0.189743 25 6 ack 40 ------- 0 15.882 6.1207 2 4277
- 0.189743 25 6 ack 40 ------- 0 15.882 6.1207 2 4277
r 0.189789 25 6 ack 40 ------- 0 25.137 6.1451 23 5895
+ 0.190127 25 6 ack 40 ------- 0 5.402 6.180 0 5917
- 0.190127 25 6 ack 40 ------- 0 5.402 6.180 0 5917
+ 0.19022 25 6 ack 40 ------- 0 25.277 10.1084 6 6150
- 0.19022 25 6 ack 40 ------- 0 25.277 10.1084 6 6150
+ 0.190252 25 6 ack 40 ------- 0 25.265 10.1072 0 6151
- 0.190252 25 6 ack 40 ------- 0 25.265 10.1072 0 6151
r 0.191021 25 6 ack 40 ------- 0 25.137 6.1451 24 5930
+ 0.191516 25 6 ack 40 ------- 0 25.158 6.1472 51 6199
- 0.191516 25 6 ack 40 ------- 0 25.158 6.1472 51 6199
+ 0.192207 25 6 tcp 1540 ------- 0 15.310 6.705 7 4279
- 0.192207 25 6 tcp 1540 ------- 0 15.310 6.705 7 4279
r 0.192238 25 6 ack 40 ------- 0 5.456 9.321 1 5876
r 0.192285 25 6 ack 40 ------- 0 25.137 6.1451 25 5979
+ 0.192623 25 6 ack 40 ------- 0 5.456 9.321 2 6001
+ 0.192748 25 6 ack 40 ------- 0 25.158 6.1472 52 6231
+ 0.192934 25 6 tcp 1540 ------- 0 20.89 1.874 2 3674
+ 0.193062 25 6 tcp 40 ------- 0 20.197 6.781 0 3745
r 0.193072 25 6 ack 40 ------- 0 15.911 6.1236 1 4177
- 0.193439 25 6 ack 40 ------- 0 5.456 9.321 2 6001
- 0.193471 25 6 ack 40 ------- 0 25.158 6.1472 52 6231
- 0.193503 25 6 tcp 1540 ------- 0 20.89 1.874 2 3674
r 0.193517 25 6 ack 40 ------- 0 25.137 6.1451 26 6018
r 0.194336 25 6 ack 40 ------- 0 15.911 6.1236 2 4213
+ 0.194671 25 6 tcp 1540 ------- 0 15.310 6.705 9 4368
- 0.194735 25 6 tcp 40 ------- 0 20.197 6.781 0 3745
- 0.194767 25 6 tcp 1540 ------- 0 15.310 6.705 9 4368
r 0.194781 25 6 ack 40 ------- 0 25.137 6.1451 27 6050
+ 0.196319 25 6 tcp 1540 ------- 0 5.1043 6.430 7 6038
- 0.196319 25 6 tcp 1540 ------- 0 5.1043 6.430 7 6038
r 0.196327 25 6 tcp 1540 ------- 0 20.89 1.874 1 3673
r 0.196359 25 6 ack 40 ------- 0 15.882 6.1207 1 4247
r 0.196391 25 6 ack 40 ------- 0 25.277 10.1084 5 6090
+ 0.196444 25 6 ack 40 ------- 0 25.158 6.1472 52 6376
r 0.196864 25 6 ack 40 ------- 0 15.882 6.1207 2 4277
r 0.197248 25 6 ack 40 ------- 0 5.402 6.180 0 5917
+ 0.197263 25 6 tcp 1540 ------- 0 15.310 6.705 11 4636
r 0.197341 25 6 ack 40 ------- 0 25.277 10.1084 6 6150
r 0.197373 25 6 ack 40 ------- 0 25.265 10.1072 0 6151
+ 0.197551 25 6 tcp 1540 ------- 0 5.1043 6.430 8 6039
- 0.197551 25 6 ack 40 ------- 0 25.158 6.1472 52 6376
- 0.197583 25 6 tcp 1540 ------- 0 15.310 6.705 11 4636
r 0.198637 25 6 ack 40 ------- 0 25.158 6.1472 51 6199
- 0.198815 25 6 tcp 1540 ------- 0 5.1043 6.430 8 6039
+ 0.198908 25 6 ack 40 ------- 0 25.158 6.1472 52 6480
+ 0.199759 25 6 tcp 1540 ------- 0 15.310 6.705 13 4782
- 0.200047 25 6 ack 40 ------- 0 25.158 6.1472 52 6480
- 0.200079 25 6 tcp 1540 ------- 0 15.310 6.705 13 4782
+ 0.200204 25 6 ack 40 ------- 0 25.158 6.1472 52 6523
r 0.200528 25 6 tcp 1540 ------- 0 15.310 6.705 7 4279
r 0.20056 25 6 ack 40 ------- 0 5.456 9.321 2 6001
r 0.200592 25 6 ack 40 ------- 0 25.158 6.1472 52 6231
+ 0.201247 25 6 tcp 1540 ------- 0 5.1043 6.430 9 6130
- 0.201311 25 6 ack 40 ------- 0 25.158 6.1472 52 6523
- 0.201343 25 6 tcp 1540 ------- 0 5.1043 6.430 9 6130
+ 0.201436 25 6 ack 40 ------- 0 25.158 6.1472 52 6563
r 0.201824 25 6 tcp 1540 ------- 0 20.89 1.874 2 3674
r 0.201856 25 6 tcp 40 ------- 0 20.197 6.781 0 3745