+ 0.003055 2 10 rtProtoDV 26 ------- 0 2.1272 10.1115 -1 39
- 0.003055 2 10 rtProtoDV 26 ------- 0 2.1272 10.1115 -1 39
+ 0.005097 2 10 rtProtoDV 26 ------- 0 2.1272 10.1115 -1 79
- 0.005097 2 10 rtProtoDV 26 ------- 0 2.1272 10.1115 -1 79
r 0.005536 2 10 rtProtoDV 26 ------- 0 2.1272 10.1115 -1 39
+ 0.007102 2 10 rtProtoDV 26 ------- 0 2.1272 10.1115 -1 155
- 0.007102 2 10 rtProtoDV 26 ------- 0 2.1272 10.1115 -1 155
+ 0.007214 2 10 rtProtoDV 26 ------- 0 2.1272 10.1115 -1 165
- 0.007214 2 10 rtProtoDV 26 ------- 0 2.1272 10.1115 -1 165
r 0.007578 2 10 rtProtoDV 26 ------- 0 2.1272 10.1115 -1 79
+ 0.008006 2 10 rtProtoDV 26 ------- 0 2.1272 10.1115 -1 201
- 0.008006 2 10 rtProtoDV 26 ------- 0 2.1272 10.1115 -1 201
+ 0.008017 2 10 rtProtoDV 26 ------- 0 2.1272 10.1115 -1 205
- 0.008027 2 10 rtProtoDV 26 ------- 0 2.1272 10.1115 -1 205
r 0.009583 2 10 rtProtoDV 26 ------- 0 2.1272 10.1115 -1 155
r 0.009695 2 10 rtProtoDV 26 ------- 0 2.1272 10.1115 -1 165
r 0.010487 2 10 rtProtoDV 26 ------- 0 2.1272 10.1115 -1 201
r 0.010508 2 10 rtProtoDV 26 ------- 0 2.1272 10.1115 -1 205
+ 0.011045 2 10 rtProtoDV 26 ------- 0 2.1272 10.1115 -1 365
- 0.011045 2 10 rtProtoDV 26 ------- 0 2.1272 10.1115 -1 365
+ 0.011658 2 10 rtProtoDV 26 ------- 0 2.1272 10.1115 -1 404
- 0.011658 2 10 rtProtoDV 26 ------- 0 2.1272 10.1115 -1 404
r 0.013526 2 10 rtProtoDV 26 ------- 0 2.1272 10.1115 -1 365
+ 0.013786 2 10 rtProtoDV 26 ------- 0 2.1272 10.1115 -1 505
- 0.013786 2 10 rtProtoDV 26 ------- 0 2.1272 10.1115 -1 505
r 0.014139 2 10 rtProtoDV 26 ------- 0 2.1272 10.1115 -1 404
+ 0.014173 2 10 rtProtoDV 26 ------- 0 2.1272 10.1115 -1 525
- 0.014173 2 10 rtProtoDV 26 ------- 0 2.1272 10.1115 -1 525
+ 0.014652 2 10 tcp 40 ------- 0 2.949 12.395 0 549
- 0.014652 2 10 tcp 40 ------- 0 2.949 12.395 0 549
r 0.016267 2 10 rtProtoDV 26 ------- 0 2.1272 10.1115 -1 505
+ 0.016474 2 10 tcp 40 ------- 0 0.870 9.442 0 496
- 0.016474 2 10 tcp 40 ------- 0 0.870 9.442 0 496
r 0.016654 2 10 rtProtoDV 26 ------- 0 2.1272 10.1115 -1 525
r 0.017145 2 10 tcp 40 ------- 0 2.949 12.395 0 549
+ 0.017693 2 10 rtProtoDV 26 ------- 0 2.1272 10.1115 -1 665
- 0.017693 2 10 rtProtoDV 26 ------- 0 2.1272 10.1115 -1 665
+ 0.018891 2 10 ack 40 ------- 0 4.378 10.112 0 492
- 0.018891 2 10 ack 40 ------- 0 4.378 10.112 0 492
r 0.018966 2 10 tcp 40 ------- 0 0.870 9.442 0 496
r 0.020174 2 10 rtProtoDV 26 ------- 0 2.1272 10.1115 -1 665
r 0.021384 2 10 ack 40 ------- 0 4.378 10.112 0 492
+ 0.022538 2 10 tcp 40 ------- 0 2.912 11.417 0 815
- 0.022538 2 10 tcp 40 ------- 0 2.912 11.417 0 815
+ 0.02288 2 10 tcp 40 ------- 0 19.315 11.878 0 569
- 0.02288 2 10 tcp 40 ------- 0 19.315 11.878 0 569
r 0.02503 2 10 tcp 40 ------- 0 2.912 11.417 0 815
r 0.025372 2 10 tcp 40 ------- 0 19.315 11.878 0 569
+ 0.025804 2 10 ack 40 ------- 0 18.631 13.1383 0 847
- 0.025804 2 10 ack 40 ------- 0 18.631 13.1383 0 847
+ 0.027976 2 10 tcp 40 ------- 0 5.1151 10.388 0 779
- 0.027976 2 10 tcp 40 ------- 0 5.1151 10.388 0 779
+ 0.028017 2 10 ack 40 ------- 0 2.351 11.127 0 942
- 0.028017 2 10 ack 40 ------- 0 2.351 11.127 0 942
r 0.028296 2 10 ack 40 ------- 0 18.631 13.1383 0 847
+ 0.029378 2 10 tcp 1540 ------- 0 2.949 12.395 1 977
- 0.029378 2 10 tcp 1540 ------- 0 2.949 12.395 1 977
+ 0.029378 2 10 tcp 1540 ------- 0 2.949 12.395 2 978
+ 0.029498 2 10 ack 40 ------- 0 0.214 11.6 0 910
r 0.030468 2 10 tcp 40 ------- 0 5.1151 10.388 0 779
r 0.030509 2 10 ack 40 ------- 0 2.351 11.127 0 942
- 0.03061 2 10 tcp 1540 ------- 0 2.949 12.395 2 978
+ 0.031253 2 10 tcp 1540 ------- 0 2.912 11.417 1 1022
+ 0.031253 2 10 tcp 1540 ------- 0 2.912 11.417 2 1023
- 0.031842 2 10 ack 40 ------- 0 0.214 11.6 0 910
- 0.031874 2 10 tcp 1540 ------- 0 2.912 11.417 1 1022
+ 0.03287 2 10 tcp 40 ------- 0 19.273 11.836 0 750
r 0.03307 2 10 tcp 1540 ------- 0 2.949 12.395 1 977
- 0.033106 2 10 tcp 1540 ------- 0 2.912 11.417 2 1023
r 0.034302 2 10 tcp 1540 ------- 0 2.949 12.395 2 978
r 0.034334 2 10 ack 40 ------- 0 0.214 11.6 0 910
- 0.034338 2 10 tcp 40 ------- 0 19.273 11.836 0 750
+ 0.03537 2 10 ack 40 ------- 0 18.581 12.1066 0 1067
- 0.03537 2 10 ack 40 ------- 0 18.581 12.1066 0 1067
r 0.035566 2 10 tcp 1540 ------- 0 2.912 11.417 1 1022
+ 0.03569 2 10 tcp 1540 ------- 0 0.870 9.442 1 1035
- 0.03569 2 10 tcp 1540 ------- 0 0.870 9.442 1 1035
r 0.036798 2 10 tcp 1540 ------- 0 2.912 11.417 2 1023
r 0.03683 2 10 tcp 40 ------- 0 19.273 11.836 0 750
+ 0.036922 2 10 tcp 1540 ------- 0 0.870 9.442 2 1036
- 0.036922 2 10 tcp 1540 ------- 0 0.870 9.442 2 1036
+ 0.036964 2 10 tcp 40 ------- 0 2.950 12.396 0 1156
r 0.037863 2 10 ack 40 ------- 0 18.581 12.1066 0 1067
- 0.038154 2 10 tcp 40 ------- 0 2.950 12.396 0 1156
+ 0.038456 2 10 tcp 40 ------- 0 1.1287 11.387 0 878
- 0.038456 2 10 tcp 40 ------- 0 1.1287 11.387 0 878
+ 0.039067 2 10 tcp 40 ------- 0 16.228 9.791 0 924
- 0.039067 2 10 tcp 40 ------- 0 16.228 9.791 0 924
+ 0.039068 2 10 tcp 40 ------- 0 21.277 9.959 0 912
- 0.039099 2 10 tcp 40 ------- 0 21.277 9.959 0 912
r 0.039383 2 10 tcp 1540 ------- 0 0.870 9.442 1 1035
+ 0.0394 2 10 ack 40 ------- 0 4.378 10.112 1 1085
- 0.0394 2 10 ack 40 ------- 0 4.378 10.112 1 1085
+ 0.039643 2 10 tcp 40 ------- 0 21.261 9.943 0 925
- 0.039643 2 10 tcp 40 ------- 0 21.261 9.943 0 925
+ 0.039912 2 10 ack 40 ------- 0 21.726 10.1040 0 928
- 0.039912 2 10 ack 40 ------- 0 21.726 10.1040 0 928
r 0.040615 2 10 tcp 1540 ------- 0 0.870 9.442 2 1036
r 0.040647 2 10 tcp 40 ------- 0 2.950 12.396 0 1156
+ 0.040664 2 10 ack 40 ------- 0 4.378 10.112 2 1116
- 0.040664 2 10 ack 40 ------- 0 4.378 10.112 2 1116
r 0.040948 2 10 tcp 40 ------- 0 1.1287 11.387 0 878
r 0.041559 2 10 tcp 40 ------- 0 16.228 9.791 0 924
r 0.041591 2 10 tcp 40 ------- 0 21.277 9.959 0 912
r 0.041892 2 10 ack 40 ------- 0 4.378 10.112 1 1085
r 0.042135 2 10 tcp 40 ------- 0 21.261 9.943 0 925
r 0.042404 2 10 ack 40 ------- 0 21.726 10.1040 0 928
+ 0.042731 2 10 ack 40 ------- 0 2.351 11.127 1 1301
- 0.042731 2 10 ack 40 ------- 0 2.351 11.127 1 1301
+ 0.042732 2 10 ack 40 ------- 0 17.767 11.1319 0 1072
- 0.042763 2 10 ack 40 ------- 0 17.767 11.1319 0 1072
r 0.043156 2 10 ack 40 ------- 0 4.378 10.112 2 1116
r 0.045224 2 10 ack 40 ------- 0 2.351 11.127 1 1301
r 0.045256 2 10 ack 40 ------- 0 17.767 11.1319 0 1072
+ 0.048458 2 10 ack 40 ------- 0 4.380 10.114 0 1303
- 0.048458 2 10 ack 40 ------- 0 4.380 10.114 0 1303
r 0.050951 2 10 ack 40 ------- 0 4.380 10.114 0 1303
+ 0.052976 2 10 ack 40 ------- 0 2.351 11.127 2 1561
- 0.052976 2 10 ack 40 ------- 0 2.351 11.127 2 1561
+ 0.053008 2 10 ack 40 ------- 0 2.402 13.50 0 1563
- 0.053008 2 10 ack 40 ------- 0 2.402 13.50 0 1563
+ 0.05304 2 10 ack 40 ------- 0 2.400 13.48 0 1564
- 0.05304 2 10 ack 40 ------- 0 2.400 13.48 0 1564
+ 0.053104 2 10 ack 40 ------- 0 2.284 9.151 0 1565
- 0.053104 2 10 ack 40 ------- 0 2.284 9.151 0 1565
+ 0.053587 2 10 tcp 40 ------- 0 3.1026 9.604 0 1343
- 0.053587 2 10 tcp 40 ------- 0 3.1026 9.604 0 1343
+ 0.055255 2 10 ack 40 ------- 0 3.337 9.242 0 1384
- 0.055255 2 10 ack 40 ------- 0 3.337 9.242 0 1384
+ 0.0554 2 10 tcp 40 ------- 0 0.884 10.210 0 1551
- 0.0554 2 10 tcp 40 ------- 0 0.884 10.210 0 1551
r 0.055468 2 10 ack 40 ------- 0 2.351 11.127 2 1561
r 0.0555 2 10 ack 40 ------- 0 2.402 13.50 0 1563
r 0.055532 2 10 ack 40 ------- 0 2.400 13.48 0 1564
r 0.055596 2 10 ack 40 ------- 0 2.284 9.151 0 1565
r 0.05608 2 10 tcp 40 ------- 0 3.1026 9.604 0 1343
+ 0.057082 2 10 tcp 1540 ------- 0 5.1151 10.388 1 1249
- 0.057082 2 10 tcp 1540 ------- 0 5.1151 10.388 1 1249
+ 0.057203 2 10 ack 40 ------- 0 2.346 10.97 0 1673
+ 0.057494 2 10 tcp 40 ------- 0 2.979 13.589 0 1686
r 0.057748 2 10 ack 40 ------- 0 3.337 9.242 0 1384
r 0.057893 2 10 tcp 40 ------- 0 0.884 10.210 0 1551
- 0.058314 2 10 ack 40 ------- 0 2.346 10.97 0 1673
+ 0.058346 2 10 tcp 1540 ------- 0 5.1151 10.388 2 1250
- 0.058346 2 10 tcp 40 ------- 0 2.979 13.589 0 1686
- 0.058378 2 10 tcp 1540 ------- 0 5.1151 10.388 2 1250
+ 0.058474 2 10 tcp 40 ------- 0 3.998 9.576 0 1458
- 0.05961 2 10 tcp 40 ------- 0 3.998 9.576 0 1458
+ 0.060108 2 10 tcp 1540 ------- 0 2.912 11.417 3 1759
- 0.060108 2 10 tcp 1540 ------- 0 2.912 11.417 3 1759
+ 0.060108 2 10 tcp 1540 ------- 0 2.912 11.417 4 1760
+ 0.06014 2 10 tcp 1540 ------- 0 2.912 11.417 5 1761
+ 0.06014 2 10 tcp 1540 ------- 0 2.912 11.417 6 1762
+ 0.060228 2 10 tcp 40 ------- 0 3.997 9.575 0 1507
r 0.060775 2 10 tcp 1540 ------- 0 5.1151 10.388 1 1249
+ 0.060792 2 10 tcp 40 ------- 0 1.1293 11.393 0 1065
r 0.060807 2 10 ack 40 ------- 0 2.346 10.97 0 1673
r 0.060839 2 10 tcp 40 ------- 0 2.979 13.589 0 1686
- 0.06134 2 10 tcp 1540 ------- 0 2.912 11.417 4 1760
r 0.062071 2 10 tcp 1540 ------- 0 5.1151 10.388 2 1250
r 0.062103 2 10 tcp 40 ------- 0 3.998 9.576 0 1458
- 0.062572 2 10 tcp 1540 ------- 0 2.912 11.417 5 1761
r 0.063801 2 10 tcp 1540 ------- 0 2.912 11.417 3 1759
- 0.063804 2 10 tcp 1540 ------- 0 2.912 11.417 6 1762
+ 0.064499 2 10 ack 40 ------- 0 2.346 10.97 1 1879
+ 0.064762 2 10 tcp 40 ------- 0 5.1145 10.382 0 1387
+ 0.064794 2 10 tcp 40 ------- 0 4.910 10.285 0 1562
+ 0.064842 2 10 tcp 40 ------- 0 2.962 13.572 0 1887
r 0.065033 2 10 tcp 1540 ------- 0 2.912 11.417 4 1760
- 0.065036 2 10 tcp 40 ------- 0 3.997 9.575 0 1507
- 0.065068 2 10 tcp 40 ------- 0 1.1293 11.393 0 1065
- 0.0651 2 10 ack 40 ------- 0 2.346 10.97 1 1879
- 0.065132 2 10 tcp 40 ------- 0 5.1145 10.382 0 1387
- 0.065164 2 10 tcp 40 ------- 0 4.910 10.285 0 1562
- 0.065196 2 10 tcp 40 ------- 0 2.962 13.572 0 1887
+ 0.065731 2 10 ack 40 ------- 0 2.346 10.97 2 1916
- 0.065731 2 10 ack 40 ------- 0 2.346 10.97 2 1916
r 0.066265 2 10 tcp 1540 ------- 0 2.912 11.417 5 1761
+ 0.066963 2 10 ack 40 ------- 0 2.351 11.127 3 1936
- 0.066963 2 10 ack 40 ------- 0 2.351 11.127 3 1936
r 0.067497 2 10 tcp 1540 ------- 0 2.912 11.417 6 1762
r 0.067529 2 10 tcp 40 ------- 0 3.997 9.575 0 1507
r 0.067561 2 10 tcp 40 ------- 0 1.1293 11.393 0 1065
r 0.067593 2 10 ack 40 ------- 0 2.346 10.97 1 1879
r 0.067625 2 10 tcp 40 ------- 0 5.1145 10.382 0 1387
r 0.067657 2 10 tcp 40 ------- 0 4.910 10.285 0 1562
r 0.067689 2 10 tcp 40 ------- 0 2.962 13.572 0 1887
+ 0.067992 2 10 tcp 40 ------- 0 18.188 13.947 0 1884
- 0.067992 2 10 tcp 40 ------- 0 18.188 13.947 0 1884
r 0.068223 2 10 ack 40 ------- 0 2.346 10.97 2 1916
r 0.069455 2 10 ack 40 ------- 0 2.351 11.127 3 1936
r 0.070485 2 10 tcp 40 ------- 0 18.188 13.947 0 1884
+ 0.070572 2 10 ack 40 ------- 0 2.351 11.127 4 2060
- 0.070572 2 10 ack 40 ------- 0 2.351 11.127 4 2060
+ 0.071217 2 10 tcp 40 ------- 0 3.1073 11.468 0 1809
- 0.071217 2 10 tcp 40 ------- 0 3.1073 11.468 0 1809
+ 0.071804 2 10 ack 40 ------- 0 2.346 10.97 3 2111
- 0.071804 2 10 ack 40 ------- 0 2.346 10.97 3 2111
+ 0.073036 2 10 ack 40 ------- 0 2.346 10.97 4 2159
- 0.073036 2 10 ack 40 ------- 0 2.346 10.97 4 2159
r 0.073065 2 10 ack 40 ------- 0 2.351 11.127 4 2060
+ 0.073484 2 10 tcp 40 ------- 0 22.308 11.931 0 1469
- 0.073484 2 10 tcp 40 ------- 0 22.308 11.931 0 1469
r 0.073709 2 10 tcp 40 ------- 0 3.1073 11.468 0 1809
+ 0.073834 2 10 ack 40 ------- 0 4.378 10.112 3 1811
- 0.073834 2 10 ack 40 ------- 0 4.378 10.112 3 1811
r 0.074297 2 10 ack 40 ------- 0 2.346 10.97 3 2111
+ 0.074332 2 10 ack 40 ------- 0 2.346 10.97 5 2194
- 0.074332 2 10 ack 40 ------- 0 2.346 10.97 5 2194
+ 0.075162 2 10 ack 40 ------- 0 4.378 10.112 4 1842
- 0.075162 2 10 ack 40 ------- 0 4.378 10.112 4 1842
r 0.075529 2 10 ack 40 ------- 0 2.346 10.97 4 2159
+ 0.075564 2 10 ack 40 ------- 0 2.346 10.97 6 2233
- 0.075564 2 10 ack 40 ------- 0 2.346 10.97 6 2233
r 0.075977 2 10 tcp 40 ------- 0 22.308 11.931 0 1469
r 0.076327 2 10 ack 40 ------- 0 4.378 10.112 3 1811
+ 0.076796 2 10 ack 40 ------- 0 2.284 9.151 1 2265
- 0.076796 2 10 ack 40 ------- 0 2.284 9.151 1 2265
r 0.076825 2 10 ack 40 ------- 0 2.346 10.97 5 2194
r 0.077655 2 10 ack 40 ------- 0 4.378 10.112 4 1842
r 0.078057 2 10 ack 40 ------- 0 2.346 10.97 6 2233
+ 0.07926 2 10 ack 40 ------- 0 2.346 10.97 7 2366
- 0.07926 2 10 ack 40 ------- 0 2.346 10.97 7 2366
r 0.079289 2 10 ack 40 ------- 0 2.284 9.151 1 2265
+ 0.080249 2 10 tcp 40 ------- 0 2.951 12.397 0 2399
- 0.080249 2 10 tcp 40 ------- 0 2.951 12.397 0 2399
+ 0.080492 2 10 ack 40 ------- 0 2.346 10.97 8 2414
- 0.080492 2 10 ack 40 ------- 0 2.346 10.97 8 2414
+ 0.080972 2 10 tcp 1540 ------- 0 0.870 9.442 3 2273
- 0.080972 2 10 tcp 1540 ------- 0 0.870 9.442 3 2273
+ 0.081724 2 10 ack 40 ------- 0 2.346 10.97 9 2450
r 0.081753 2 10 ack 40 ------- 0 2.346 10.97 7 2366
+ 0.082204 2 10 tcp 1540 ------- 0 0.870 9.442 4 2274
- 0.082204 2 10 ack 40 ------- 0 2.346 10.97 9 2450
+ 0.082236 2 10 tcp 40 ------- 0 0.916 10.242 0 2313
- 0.082236 2 10 tcp 1540 ------- 0 0.870 9.442 4 2274
+ 0.0823 2 10 tcp 40 ------- 0 19.320 11.883 0 2199
r 0.082741 2 10 tcp 40 ------- 0 2.951 12.397 0 2399
+ 0.082956 2 10 ack 40 ------- 0 2.346 10.97 10 2491
r 0.082985 2 10 ack 40 ------- 0 2.346 10.97 8 2414
- 0.083468 2 10 tcp 40 ------- 0 0.916 10.242 0 2313
- 0.0835 2 10 tcp 40 ------- 0 19.320 11.883 0 2199
- 0.083532 2 10 ack 40 ------- 0 2.346 10.97 10 2491
+ 0.084188 2 10 ack 40 ------- 0 2.284 9.151 2 2527
- 0.084188 2 10 ack 40 ------- 0 2.284 9.151 2 2527
r 0.084664 2 10 tcp 1540 ------- 0 0.870 9.442 3 2273
r 0.084696 2 10 ack 40 ------- 0 2.346 10.97 9 2450
r 0.085928 2 10 tcp 1540 ------- 0 0.870 9.442 4 2274
r 0.08596 2 10 tcp 40 ------- 0 0.916 10.242 0 2313
r 0.085992 2 10 tcp 40 ------- 0 19.320 11.883 0 2199
r 0.086024 2 10 ack 40 ------- 0 2.346 10.97 10 2491
r 0.086681 2 10 ack 40 ------- 0 2.284 9.151 2 2527
+ 0.08761 2 10 tcp 40 ------- 0 4.963 10.338 0 2002
- 0.08761 2 10 tcp 40 ------- 0 4.963 10.338 0 2002
+ 0.088428 2 10 ack 40 ------- 0 0.214 11.6 1 2573
- 0.088428 2 10 ack 40 ------- 0 0.214 11.6 1 2573
+ 0.089148 2 10 ack 40 ------- 0 2.346 10.97 11 2703
- 0.089148 2 10 ack 40 ------- 0 2.346 10.97 11 2703
r 0.090103 2 10 tcp 40 ------- 0 4.963 10.338 0 2002
+ 0.09038 2 10 ack 40 ------- 0 2.346 10.97 12 2751
- 0.09038 2 10 ack 40 ------- 0 2.346 10.97 12 2751
r 0.09092 2 10 ack 40 ------- 0 0.214 11.6 1 2573
+ 0.091078 2 10 tcp 1540 ------- 0 16.228 9.791 1 2204
- 0.091078 2 10 tcp 1540 ------- 0 16.228 9.791 1 2204
r 0.091641 2 10 ack 40 ------- 0 2.346 10.97 11 2703
+ 0.092124 2 10 tcp 1540 ------- 0 0.870 9.442 5 2662
- 0.09231 2 10 tcp 1540 ------- 0 0.870 9.442 5 2662
r 0.092873 2 10 ack 40 ------- 0 2.346 10.97 12 2751
+ 0.093356 2 10 tcp 1540 ------- 0 0.870 9.442 6 2663
+ 0.093388 2 10 ack 40 ------- 0 1.460 10.64 0 1595
- 0.093542 2 10 tcp 1540 ------- 0 0.870 9.442 6 2663
+ 0.094108 2 10 ack 40 ------- 0 2.346 10.97 13 2847
r 0.094771 2 10 tcp 1540 ------- 0 16.228 9.791 1 2204
- 0.094774 2 10 ack 40 ------- 0 1.460 10.64 0 1595
- 0.094806 2 10 ack 40 ------- 0 2.346 10.97 13 2847
+ 0.09534 2 10 ack 40 ------- 0 2.346 10.97 14 2882
- 0.09534 2 10 ack 40 ------- 0 2.346 10.97 14 2882
r 0.096003 2 10 tcp 1540 ------- 0 0.870 9.442 5 2662
+ 0.096006 2 10 tcp 1540 ------- 0 16.228 9.791 2 2205
- 0.096006 2 10 tcp 1540 ------- 0 16.228 9.791 2 2205
+ 0.096298 2 10 ack 40 ------- 0 4.378 10.112 5 2116
r 0.097235 2 10 tcp 1540 ------- 0 0.870 9.442 6 2663
- 0.097238 2 10 ack 40 ------- 0 4.378 10.112 5 2116
r 0.097267 2 10 ack 40 ------- 0 1.460 10.64 0 1595
r 0.097299 2 10 ack 40 ------- 0 2.346 10.97 13 2847
+ 0.097804 2 10 ack 40 ------- 0 2.346 10.97 15 2972
- 0.097804 2 10 ack 40 ------- 0 2.346 10.97 15 2972
r 0.097833 2 10 ack 40 ------- 0 2.346 10.97 14 2882
+ 0.099036 2 10 ack 40 ------- 0 2.346 10.97 16 3010
- 0.099036 2 10 ack 40 ------- 0 2.346 10.97 16 3010
+ 0.099536 2 10 tcp 40 ------- 0 18.160 11.816 0 2950
- 0.099536 2 10 tcp 40 ------- 0 18.160 11.816 0 2950
r 0.099699 2 10 tcp 1540 ------- 0 16.228 9.791 2 2205
r 0.099731 2 10 ack 40 ------- 0 4.378 10.112 5 2116
+ 0.100122 2 10 ack 40 ------- 0 4.378 10.112 6 2234
- 0.100122 2 10 ack 40 ------- 0 4.378 10.112 6 2234
+ 0.100268 2 10 ack 40 ------- 0 2.351 11.127 5 3050
- 0.100268 2 10 ack 40 ------- 0 2.351 11.127 5 3050
r 0.100297 2 10 ack 40 ------- 0 2.346 10.97 15 2972
+ 0.1015 2 10 ack 40 ------- 0 2.346 10.97 17 3100
- 0.1015 2 10 ack 40 ------- 0 2.346 10.97 17 3100
r 0.101529 2 10 ack 40 ------- 0 2.346 10.97 16 3010
r 0.102028 2 10 tcp 40 ------- 0 18.160 11.816 0 2950
r 0.102615 2 10 ack 40 ------- 0 4.378 10.112 6 2234
+ 0.102732 2 10 ack 40 ------- 0 2.346 10.97 18 3151
- 0.102732 2 10 ack 40 ------- 0 2.346 10.97 18 3151
r 0.102761 2 10 ack 40 ------- 0 2.351 11.127 5 3050
r 0.103993 2 10 ack 40 ------- 0 2.346 10.97 17 3100
+ 0.103996 2 10 ack 40 ------- 0 2.346 10.97 19 3196
- 0.103996 2 10 ack 40 ------- 0 2.346 10.97 19 3196
+ 0.10454 2 10 ack 40 ------- 0 0.214 11.6 2 3112
- 0.10454 2 10 ack 40 ------- 0 0.214 11.6 2 3112
r 0.105225 2 10 ack 40 ------- 0 2.346 10.97 18 3151
+ 0.105228 2 10 ack 40 ------- 0 2.346 10.97 20 3237
- 0.105228 2 10 ack 40 ------- 0 2.346 10.97 20 3237
+ 0.105868 2 10 tcp 1540 ------- 0 0.884 10.210 1 3118
- 0.105868 2 10 tcp 1540 ------- 0 0.884 10.210 1 3118
r 0.106489 2 10 ack 40 ------- 0 2.346 10.97 19 3196
r 0.107032 2 10 ack 40 ------- 0 0.214 11.6 2 3112
+ 0.1071 2 10 tcp 1540 ------- 0 0.884 10.210 2 3119
- 0.1071 2 10 tcp 1540 ------- 0 0.884 10.210 2 3119
+ 0.107164 2 10 ack 40 ------- 0 4.331 9.251 0 2372
r 0.107721 2 10 ack 40 ------- 0 2.346 10.97 20 3237
+ 0.107756 2 10 ack 40 ------- 0 2.346 10.97 21 3312
- 0.108332 2 10 ack 40 ------- 0 4.331 9.251 0 2372
- 0.108364 2 10 ack 40 ------- 0 2.346 10.97 21 3312
+ 0.108988 2 10 ack 40 ------- 0 2.346 10.97 22 3349
- 0.108988 2 10 ack 40 ------- 0 2.346 10.97 22 3349
+ 0.109116 2 10 ack 40 ------- 0 2.304 9.171 0 3355
- 0.109116 2 10 ack 40 ------- 0 2.304 9.171 0 3355
r 0.10956 2 10 tcp 1540 ------- 0 0.884 10.210 1 3118
+ 0.110348 2 10 ack 40 ------- 0 2.351 11.127 6 3387
- 0.110348 2 10 ack 40 ------- 0 2.351 11.127 6 3387
+ 0.110444 2 10 tcp 1540 ------- 0 2.912 11.417 7 3388
- 0.110444 2 10 tcp 1540 ------- 0 2.912 11.417 7 3388
+ 0.110444 2 10 tcp 1540 ------- 0 2.912 11.417 8 3389
r 0.110792 2 10 tcp 1540 ------- 0 0.884 10.210 2 3119
r 0.110824 2 10 ack 40 ------- 0 4.331 9.251 0 2372
r 0.110856 2 10 ack 40 ------- 0 2.346 10.97 21 3312
r 0.111481 2 10 ack 40 ------- 0 2.346 10.97 22 3349
r 0.111609 2 10 ack 40 ------- 0 2.304 9.171 0 3355
- 0.111676 2 10 tcp 1540 ------- 0 2.912 11.417 8 3389
+ 0.111772 2 10 ack 40 ------- 0 2.346 10.97 23 3444
r 0.112841 2 10 ack 40 ------- 0 2.351 11.127 6 3387
- 0.112908 2 10 ack 40 ------- 0 2.346 10.97 23 3444
+ 0.113004 2 10 ack 40 ------- 0 2.346 10.97 24 3478
- 0.113004 2 10 ack 40 ------- 0 2.346 10.97 24 3478
r 0.114137 2 10 tcp 1540 ------- 0 2.912 11.417 7 3388
+ 0.114282 2 10 ack 40 ------- 0 4.380 10.114 1 2564
- 0.114282 2 10 ack 40 ------- 0 4.380 10.114 1 2564
+ 0.1143 2 10 tcp 1540 ------- 0 2.912 11.417 9 3504
+ 0.1143 2 10 tcp 1540 ------- 0 2.912 11.417 10 3505
- 0.114314 2 10 tcp 1540 ------- 0 2.912 11.417 9 3504
r 0.115369 2 10 tcp 1540 ------- 0 2.912 11.417 8 3389
r 0.115401 2 10 ack 40 ------- 0 2.346 10.97 23 3444
r 0.115497 2 10 ack 40 ------- 0 2.346 10.97 24 3478
- 0.115546 2 10 tcp 1540 ------- 0 2.912 11.417 10 3505
+ 0.115564 2 10 ack 40 ------- 0 2.346 10.97 25 3549
+ 0.116186 2 10 tcp 40 ------- 0 16.293 9.856 0 2533
r 0.116775 2 10 ack 40 ------- 0 4.380 10.114 1 2564
- 0.116778 2 10 ack 40 ------- 0 2.346 10.97 25 3549
+ 0.116796 2 10 ack 40 ------- 0 2.346 10.97 26 3577
- 0.11681 2 10 tcp 40 ------- 0 16.293 9.856 0 2533
- 0.116842 2 10 ack 40 ------- 0 2.346 10.97 26 3577
r 0.118007 2 10 tcp 1540 ------- 0 2.912 11.417 9 3504
r 0.119239 2 10 tcp 1540 ------- 0 2.912 11.417 10 3505
r 0.119271 2 10 ack 40 ------- 0 2.346 10.97 25 3549
+ 0.119274 2 10 ack 40 ------- 0 4.380 10.114 2 2660
- 0.119274 2 10 ack 40 ------- 0 4.380 10.114 2 2660
r 0.119303 2 10 tcp 40 ------- 0 16.293 9.856 0 2533
r 0.119335 2 10 ack 40 ------- 0 2.346 10.97 26 3577
+ 0.119826 2 10 ack 40 ------- 0 18.631 13.1383 1 3598
- 0.119826 2 10 ack 40 ------- 0 18.631 13.1383 1 3598
+ 0.12143 2 10 ack 40 ------- 0 21.726 10.1040 1 2343
- 0.12143 2 10 ack 40 ------- 0 21.726 10.1040 1 2343
+ 0.121462 2 10 ack 40 ------- 0 21.726 10.1040 2 2514
- 0.121462 2 10 ack 40 ------- 0 21.726 10.1040 2 2514
+ 0.121558 2 10 tcp 40 ------- 0 3.1071 11.466 0 3445
- 0.121558 2 10 tcp 40 ------- 0 3.1071 11.466 0 3445
+ 0.121756 2 10 ack 40 ------- 0 2.346 10.97 27 3728
- 0.121756 2 10 ack 40 ------- 0 2.346 10.97 27 3728
r 0.121767 2 10 ack 40 ------- 0 4.380 10.114 2 2660
+ 0.121884 2 10 tcp 40 ------- 0 0.841 9.413 0 3632
- 0.121884 2 10 tcp 40 ------- 0 0.841 9.413 0 3632
r 0.122318 2 10 ack 40 ------- 0 18.631 13.1383 1 3598
+ 0.122988 2 10 ack 40 ------- 0 2.346 10.97 28 3763
- 0.122988 2 10 ack 40 ------- 0 2.346 10.97 28 3763
+ 0.12302 2 10 tcp 1540 ------- 0 2.949 12.395 3 3765
+ 0.12302 2 10 tcp 1540 ------- 0 2.949 12.395 4 3766
- 0.12302 2 10 tcp 1540 ------- 0 2.949 12.395 3 3765
+ 0.123084 2 10 tcp 1540 ------- 0 2.912 11.417 11 3767
+ 0.123084 2 10 tcp 1540 ------- 0 2.912 11.417 12 3768
+ 0.123116 2 10 tcp 1540 ------- 0 2.949 12.395 5 3769
+ 0.123116 2 10 tcp 1540 ------- 0 2.949 12.395 6 3770
r 0.123922 2 10 ack 40 ------- 0 21.726 10.1040 1 2343
r 0.123954 2 10 ack 40 ------- 0 21.726 10.1040 2 2514
r 0.12405 2 10 tcp 40 ------- 0 3.1071 11.466 0 3445
r 0.124249 2 10 ack 40 ------- 0 2.346 10.97 27 3728
- 0.124252 2 10 tcp 1540 ------- 0 2.949 12.395 4 3766
+ 0.124348 2 10 ack 40 ------- 0 2.346 10.97 29 3817
r 0.124376 2 10 tcp 40 ------- 0 0.841 9.413 0 3632
r 0.125481 2 10 ack 40 ------- 0 2.346 10.97 28 3763
- 0.125484 2 10 tcp 1540 ------- 0 2.912 11.417 11 3767
+ 0.12558 2 10 ack 40 ------- 0 2.346 10.97 30 3867
+ 0.125599 2 10 tcp 40 ------- 0 18.232 13.991 0 3637
+ 0.125631 2 10 ack 40 ------- 0 18.631 13.1383 2 3721
+ 0.125644 2 10 tcp 1540 ------- 0 2.912 11.417 13 3870
+ 0.125644 2 10 tcp 1540 ------- 0 2.912 11.417 14 3871
+ 0.126426 2 10 tcp 40 ------- 0 16.371 11.794 0 2745
d 0.126426 2 10 tcp 40 ------- 0 16.371 11.794 0 2745
+ 0.126554 2 10 tcp 40 ------- 0 16.224 9.787 0 2820
d 0.126554 2 10 tcp 40 ------- 0 16.224 9.787 0 2820
r 0.126713 2 10 tcp 1540 ------- 0 2.949 12.395 3 3765
- 0.126716 2 10 tcp 1540 ------- 0 2.912 11.417 12 3768
+ 0.127148 2 10 tcp 40 ------- 0 17.306 11.803 0 2567
r 0.127945 2 10 tcp 1540 ------- 0 2.949 12.395 4 3766
- 0.127948 2 10 tcp 1540 ------- 0 2.949 12.395 5 3769
+ 0.128152 2 10 tcp 40 ------- 0 2.890 11.395 0 3962
r 0.129177 2 10 tcp 1540 ------- 0 2.912 11.417 11 3767
- 0.12918 2 10 tcp 1540 ------- 0 2.949 12.395 6 3770
+ 0.129436 2 10 ack 40 ------- 0 2.346 10.97 31 3999
r 0.130409 2 10 tcp 1540 ------- 0 2.912 11.417 12 3768
- 0.130412 2 10 ack 40 ------- 0 2.346 10.97 29 3817
- 0.130444 2 10 ack 40 ------- 0 2.346 10.97 30 3867
- 0.130476 2 10 tcp 40 ------- 0 18.232 13.991 0 3637
- 0.130508 2 10 ack 40 ------- 0 18.631 13.1383 2 3721
- 0.13054 2 10 tcp 1540 ------- 0 2.912 11.417 13 3870
+ 0.130668 2 10 ack 40 ------- 0 2.346 10.97 32 4030
r 0.131641 2 10 tcp 1540 ------- 0 2.949 12.395 5 3769
- 0.131772 2 10 tcp 1540 ------- 0 2.912 11.417 14 3871
+ 0.1319 2 10 ack 40 ------- 0 2.346 10.97 33 4065
+ 0.132138 2 10 ack 40 ------- 0 4.403 10.137 0 3206
r 0.132873 2 10 tcp 1540 ------- 0 2.949 12.395 6 3770
r 0.132905 2 10 ack 40 ------- 0 2.346 10.97 29 3817
r 0.132937 2 10 ack 40 ------- 0 2.346 10.97 30 3867
r 0.132969 2 10 tcp 40 ------- 0 18.232 13.991 0 3637
r 0.133001 2 10 ack 40 ------- 0 18.631 13.1383 2 3721
- 0.133004 2 10 tcp 40 ------- 0 17.306 11.803 0 2567
- 0.133036 2 10 tcp 40 ------- 0 2.890 11.395 0 3962
- 0.133068 2 10 ack 40 ------- 0 2.346 10.97 31 3999
- 0.1331 2 10 ack 40 ------- 0 2.346 10.97 32 4030
+ 0.133132 2 10 ack 40 ------- 0 2.346 10.97 34 4101
- 0.133132 2 10 ack 40 ------- 0 2.346 10.97 33 4065
- 0.133164 2 10 ack 40 ------- 0 4.403 10.137 0 3206
- 0.133196 2 10 ack 40 ------- 0 2.346 10.97 34 4101
r 0.134233 2 10 tcp 1540 ------- 0 2.912 11.417 13 3870
r 0.135465 2 10 tcp 1540 ------- 0 2.912 11.417 14 3871
r 0.135497 2 10 tcp 40 ------- 0 17.306 11.803 0 2567
r 0.135529 2 10 tcp 40 ------- 0 2.890 11.395 0 3962
r 0.135561 2 10 ack 40 ------- 0 2.346 10.97 31 3999
r 0.135593 2 10 ack 40 ------- 0 2.346 10.97 32 4030
r 0.135625 2 10 ack 40 ------- 0 2.346 10.97 33 4065
r 0.135657 2 10 ack 40 ------- 0 4.403 10.137 0 3206
r 0.135689 2 10 ack 40 ------- 0 2.346 10.97 34 4101
+ 0.136828 2 10 ack 40 ------- 0 2.351 11.127 7 4218
- 0.136828 2 10 ack 40 ------- 0 2.351 11.127 7 4218
+ 0.137132 2 10 tcp 40 ------- 0 17.268 10.617 0 3036
- 0.137132 2 10 tcp 40 ------- 0 17.268 10.617 0 3036
+ 0.137162 2 10 tcp 40 ------- 0 19.284 11.847 0 4022
- 0.137164 2 10 tcp 40 ------- 0 19.284 11.847 0 4022
+ 0.13806 2 10 ack 40 ------- 0 2.346 10.97 34 4253
- 0.13806 2 10 ack 40 ------- 0 2.346 10.97 34 4253
+ 0.139292 2 10 ack 40 ------- 0 2.346 10.97 34 4290
- 0.139292 2 10 ack 40 ------- 0 2.346 10.97 34 4290
r 0.139321 2 10 ack 40 ------- 0 2.351 11.127 7 4218
r 0.139624 2 10 tcp 40 ------- 0 17.268 10.617 0 3036
r 0.139656 2 10 tcp 40 ------- 0 19.284 11.847 0 4022
+ 0.139658 2 10 tcp 1540 ------- 0 5.1151 10.388 3 3365
- 0.139658 2 10 tcp 1540 ------- 0 5.1151 10.388 3 3365
+ 0.140524 2 10 ack 40 ------- 0 2.346 10.97 34 4336
r 0.140553 2 10 ack 40 ------- 0 2.346 10.97 34 4253
- 0.14089 2 10 ack 40 ------- 0 2.346 10.97 34 4336
+ 0.140922 2 10 tcp 1540 ------- 0 5.1151 10.388 4 3366
- 0.140922 2 10 tcp 1540 ------- 0 5.1151 10.388 4 3366
+ 0.140954 2 10 tcp 40 ------- 0 3.960 9.538 0 4048
+ 0.141756 2 10 ack 40 ------- 0 2.346 10.97 34 4376
r 0.141785 2 10 ack 40 ------- 0 2.346 10.97 34 4290
- 0.142154 2 10 tcp 40 ------- 0 3.960 9.538 0 4048
- 0.142186 2 10 ack 40 ------- 0 2.346 10.97 34 4376
+ 0.142379 2 10 tcp 40 ------- 0 19.267 11.830 0 4188
- 0.142379 2 10 tcp 40 ------- 0 19.267 11.830 0 4188
+ 0.142988 2 10 ack 40 ------- 0 2.351 11.127 8 4410
- 0.142988 2 10 ack 40 ------- 0 2.351 11.127 8 4410
r 0.143351 2 10 tcp 1540 ------- 0 5.1151 10.388 3 3365
r 0.143383 2 10 ack 40 ------- 0 2.346 10.97 34 4336
+ 0.14422 2 10 ack 40 ------- 0 2.284 9.151 2 4451
- 0.14422 2 10 ack 40 ------- 0 2.284 9.151 2 4451
r 0.144615 2 10 tcp 1540 ------- 0 5.1151 10.388 4 3366
r 0.144647 2 10 tcp 40 ------- 0 3.960 9.538 0 4048
r 0.144679 2 10 ack 40 ------- 0 2.346 10.97 34 4376
r 0.144871 2 10 tcp 40 ------- 0 19.267 11.830 0 4188
r 0.145481 2 10 ack 40 ------- 0 2.351 11.127 8 4410
+ 0.145516 2 10 ack 40 ------- 0 2.346 10.97 34 4500
- 0.145516 2 10 ack 40 ------- 0 2.346 10.97 34 4500
r 0.146713 2 10 ack 40 ------- 0 2.284 9.151 2 4451
+ 0.14678 2 10 ack 40 ------- 0 2.346 10.97 34 4553
- 0.14678 2 10 ack 40 ------- 0 2.346 10.97 34 4553
+ 0.147679 2 10 tcp 1540 ------- 0 3.1026 9.604 1 4197
- 0.147679 2 10 tcp 1540 ------- 0 3.1026 9.604 1 4197
+ 0.147743 2 10 tcp 40 ------- 0 19.209 10.654 0 4332
r 0.148009 2 10 ack 40 ------- 0 2.346 10.97 34 4500
+ 0.148044 2 10 ack 40 ------- 0 2.351 11.127 9 4604
- 0.148911 2 10 tcp 40 ------- 0 19.209 10.654 0 4332
- 0.148943 2 10 ack 40 ------- 0 2.351 11.127 9 4604
+ 0.148975 2 10 tcp 1540 ------- 0 3.1026 9.604 2 4198
- 0.148975 2 10 tcp 1540 ------- 0 3.1026 9.604 2 4198
+ 0.149007 2 10 tcp 40 ------- 0 3.1038 11.433 0 4217
r 0.149273 2 10 ack 40 ------- 0 2.346 10.97 34 4553
+ 0.149308 2 10 ack 40 ------- 0 2.346 10.97 34 4646
+ 0.149375 2 10 tcp 40 ------- 0 19.259 11.822 0 4377
+ 0.149898 2 10 ack 40 ------- 0 4.378 10.112 7 3935
+ 0.149906 2 10 ack 40 ------- 0 18.462 10.888 0 4596
- 0.150207 2 10 tcp 40 ------- 0 3.1038 11.433 0 4217
- 0.150239 2 10 ack 40 ------- 0 2.346 10.97 34 4646
- 0.150271 2 10 tcp 40 ------- 0 19.259 11.822 0 4377
- 0.150303 2 10 ack 40 ------- 0 4.378 10.112 7 3935
- 0.150335 2 10 ack 40 ------- 0 18.462 10.888 0 4596
+ 0.15054 2 10 ack 40 ------- 0 2.346 10.97 34 4703
- 0.15054 2 10 ack 40 ------- 0 2.346 10.97 34 4703
r 0.151371 2 10 tcp 1540 ------- 0 3.1026 9.604 1 4197
r 0.151403 2 10 tcp 40 ------- 0 19.209 10.654 0 4332
r 0.151435 2 10 ack 40 ------- 0 2.351 11.127 9 4604
+ 0.152092 2 10 tcp 1540 ------- 0 0.916 10.242 1 4601
- 0.152092 2 10 tcp 1540 ------- 0 0.916 10.242 1 4601
r 0.152667 2 10 tcp 1540 ------- 0 3.1026 9.604 2 4198
r 0.152699 2 10 tcp 40 ------- 0 3.1038 11.433 0 4217
r 0.152731 2 10 ack 40 ------- 0 2.346 10.97 34 4646
r 0.152763 2 10 tcp 40 ------- 0 19.259 11.822 0 4377
r 0.152795 2 10 ack 40 ------- 0 4.378 10.112 7 3935
r 0.152827 2 10 ack 40 ------- 0 18.462 10.888 0 4596
r 0.153033 2 10 ack 40 ------- 0 2.346 10.97 34 4703
+ 0.153324 2 10 tcp 1540 ------- 0 0.916 10.242 2 4602
- 0.153324 2 10 tcp 1540 ------- 0 0.916 10.242 2 4602
+ 0.153356 2 10 tcp 40 ------- 0 21.309 11.917 0 3227
+ 0.153548 2 10 ack 40 ------- 0 0.183 9.5 0 4702
+ 0.154148 2 10 tcp 40 ------- 0 0.913 10.239 0 4716
+ 0.154236 2 10 ack 40 ------- 0 2.351 11.127 10 4801
- 0.154556 2 10 tcp 40 ------- 0 21.309 11.917 0 3227
- 0.154588 2 10 ack 40 ------- 0 0.183 9.5 0 4702
- 0.15462 2 10 tcp 40 ------- 0 0.913 10.239 0 4716
- 0.154652 2 10 ack 40 ------- 0 2.351 11.127 10 4801
+ 0.154748 2 10 ack 40 ------- 0 0.180 9.2 0 4726
- 0.154748 2 10 ack 40 ------- 0 0.180 9.2 0 4726
+ 0.155135 2 10 ack 40 ------- 0 3.337 9.242 1 4516
- 0.155135 2 10 ack 40 ------- 0 3.337 9.242 1 4516
+ 0.155596 2 10 ack 40 ------- 0 2.346 10.97 34 4868
- 0.155596 2 10 ack 40 ------- 0 2.346 10.97 34 4868
r 0.155784 2 10 tcp 1540 ------- 0 0.916 10.242 1 4601
+ 0.156108 2 10 ack 40 ------- 0 0.187 9.9 0 4768
- 0.156108 2 10 ack 40 ------- 0 0.187 9.9 0 4768
+ 0.156447 2 10 tcp 40 ------- 0 22.350 11.973 0 3986
- 0.156447 2 10 tcp 40 ------- 0 22.350 11.973 0 3986
+ 0.156828 2 10 ack 40 ------- 0 2.346 10.97 34 4906
- 0.156828 2 10 ack 40 ------- 0 2.346 10.97 34 4906
r 0.157016 2 10 tcp 1540 ------- 0 0.916 10.242 2 4602
r 0.157048 2 10 tcp 40 ------- 0 21.309 11.917 0 3227
r 0.15708 2 10 ack 40 ------- 0 0.183 9.5 0 4702
r 0.157112 2 10 tcp 40 ------- 0 0.913 10.239 0 4716
r 0.157144 2 10 ack 40 ------- 0 2.351 11.127 10 4801