+ 0.005536 10 11 rtProtoDV 26 ------- 0 10.1115 11.1480 -1 100
- 0.005536 10 11 rtProtoDV 26 ------- 0 10.1115 11.1480 -1 100
r 0.007357 10 11 rtProtoDV 26 ------- 0 10.1115 11.1480 -1 100
+ 0.007578 10 11 rtProtoDV 26 ------- 0 10.1115 11.1480 -1 188
- 0.007578 10 11 rtProtoDV 26 ------- 0 10.1115 11.1480 -1 188
+ 0.009177 10 11 rtProtoDV 26 ------- 0 10.1115 11.1480 -1 242
- 0.009177 10 11 rtProtoDV 26 ------- 0 10.1115 11.1480 -1 242
r 0.009398 10 11 rtProtoDV 26 ------- 0 10.1115 11.1480 -1 188
+ 0.009403 10 11 rtProtoDV 26 ------- 0 10.1115 11.1480 -1 252
- 0.009403 10 11 rtProtoDV 26 ------- 0 10.1115 11.1480 -1 252
+ 0.009695 10 11 rtProtoDV 26 ------- 0 10.1115 11.1480 -1 266
- 0.009695 10 11 rtProtoDV 26 ------- 0 10.1115 11.1480 -1 266
+ 0.010487 10 11 rtProtoDV 26 ------- 0 10.1115 11.1480 -1 322
- 0.010487 10 11 rtProtoDV 26 ------- 0 10.1115 11.1480 -1 322
r 0.010997 10 11 rtProtoDV 26 ------- 0 10.1115 11.1480 -1 242
r 0.011224 10 11 rtProtoDV 26 ------- 0 10.1115 11.1480 -1 252
+ 0.011305 10 11 rtProtoDV 26 ------- 0 10.1115 11.1480 -1 387
- 0.011305 10 11 rtProtoDV 26 ------- 0 10.1115 11.1480 -1 387
r 0.011515 10 11 rtProtoDV 26 ------- 0 10.1115 11.1480 -1 266
+ 0.011692 10 11 rtProtoDV 26 ------- 0 10.1115 11.1480 -1 409
- 0.011692 10 11 rtProtoDV 26 ------- 0 10.1115 11.1480 -1 409
r 0.012307 10 11 rtProtoDV 26 ------- 0 10.1115 11.1480 -1 322
r 0.013126 10 11 rtProtoDV 26 ------- 0 10.1115 11.1480 -1 387
r 0.013513 10 11 rtProtoDV 26 ------- 0 10.1115 11.1480 -1 409
+ 0.013526 10 11 rtProtoDV 26 ------- 0 10.1115 11.1480 -1 495
- 0.013526 10 11 rtProtoDV 26 ------- 0 10.1115 11.1480 -1 495
r 0.015347 10 11 rtProtoDV 26 ------- 0 10.1115 11.1480 -1 495
+ 0.017145 10 11 tcp 40 ------- 0 2.949 12.395 0 549
- 0.017145 10 11 tcp 40 ------- 0 2.949 12.395 0 549
+ 0.017476 10 11 rtProtoDV 26 ------- 0 10.1115 11.1480 -1 657
- 0.017476 10 11 rtProtoDV 26 ------- 0 10.1115 11.1480 -1 657
r 0.01901 10 11 tcp 40 ------- 0 2.949 12.395 0 549
r 0.019297 10 11 rtProtoDV 26 ------- 0 10.1115 11.1480 -1 657
+ 0.021009 10 11 rtProtoDV 26 ------- 0 10.1115 11.1480 -1 773
- 0.021009 10 11 rtProtoDV 26 ------- 0 10.1115 11.1480 -1 773
r 0.022829 10 11 rtProtoDV 26 ------- 0 10.1115 11.1480 -1 773
+ 0.02503 10 11 tcp 40 ------- 0 2.912 11.417 0 815
- 0.02503 10 11 tcp 40 ------- 0 2.912 11.417 0 815
+ 0.025372 10 11 tcp 40 ------- 0 19.315 11.878 0 569
- 0.025372 10 11 tcp 40 ------- 0 19.315 11.878 0 569
r 0.026896 10 11 tcp 40 ------- 0 2.912 11.417 0 815
r 0.027238 10 11 tcp 40 ------- 0 19.315 11.878 0 569
+ 0.028296 10 11 ack 40 ------- 0 18.631 13.1383 0 847
- 0.028296 10 11 ack 40 ------- 0 18.631 13.1383 0 847
r 0.030162 10 11 ack 40 ------- 0 18.631 13.1383 0 847
+ 0.030509 10 11 ack 40 ------- 0 2.351 11.127 0 942
- 0.030509 10 11 ack 40 ------- 0 2.351 11.127 0 942
r 0.032374 10 11 ack 40 ------- 0 2.351 11.127 0 942
+ 0.03307 10 11 tcp 1540 ------- 0 2.949 12.395 1 977
- 0.03307 10 11 tcp 1540 ------- 0 2.949 12.395 1 977
+ 0.034302 10 11 tcp 1540 ------- 0 2.949 12.395 2 978
+ 0.034334 10 11 ack 40 ------- 0 0.214 11.6 0 910
+ 0.035566 10 11 tcp 1540 ------- 0 2.912 11.417 1 1022
+ 0.036798 10 11 tcp 1540 ------- 0 2.912 11.417 2 1023
+ 0.03683 10 11 tcp 40 ------- 0 19.273 11.836 0 750
+ 0.037863 10 11 ack 40 ------- 0 18.581 12.1066 0 1067
- 0.037998 10 11 tcp 1540 ------- 0 2.949 12.395 2 978
r 0.039735 10 11 tcp 1540 ------- 0 2.949 12.395 1 977
+ 0.040647 10 11 tcp 40 ------- 0 2.950 12.396 0 1156
+ 0.040948 10 11 tcp 40 ------- 0 1.1287 11.387 0 878
- 0.042926 10 11 ack 40 ------- 0 0.214 11.6 0 910
- 0.043054 10 11 tcp 1540 ------- 0 2.912 11.417 1 1022
r 0.044663 10 11 tcp 1540 ------- 0 2.949 12.395 2 978
r 0.044791 10 11 ack 40 ------- 0 0.214 11.6 0 910
+ 0.045224 10 11 ack 40 ------- 0 2.351 11.127 1 1301
+ 0.045256 10 11 ack 40 ------- 0 17.767 11.1319 0 1072
- 0.047982 10 11 tcp 1540 ------- 0 2.912 11.417 2 1023
r 0.049719 10 11 tcp 1540 ------- 0 2.912 11.417 1 1022
- 0.05291 10 11 tcp 40 ------- 0 19.273 11.836 0 750
- 0.053038 10 11 ack 40 ------- 0 18.581 12.1066 0 1067
- 0.053166 10 11 tcp 40 ------- 0 2.950 12.396 0 1156
- 0.053294 10 11 tcp 40 ------- 0 1.1287 11.387 0 878
- 0.053422 10 11 ack 40 ------- 0 2.351 11.127 1 1301
- 0.05355 10 11 ack 40 ------- 0 17.767 11.1319 0 1072
+ 0.054242 10 11 tcp 40 ------- 0 10.857 14.841 0 1592
- 0.054242 10 11 tcp 40 ------- 0 10.857 14.841 0 1592
r 0.054647 10 11 tcp 1540 ------- 0 2.912 11.417 2 1023
r 0.054775 10 11 tcp 40 ------- 0 19.273 11.836 0 750
r 0.054903 10 11 ack 40 ------- 0 18.581 12.1066 0 1067
r 0.055031 10 11 tcp 40 ------- 0 2.950 12.396 0 1156
r 0.055159 10 11 tcp 40 ------- 0 1.1287 11.387 0 878
r 0.055287 10 11 ack 40 ------- 0 2.351 11.127 1 1301
r 0.055415 10 11 ack 40 ------- 0 17.767 11.1319 0 1072
+ 0.055468 10 11 ack 40 ------- 0 2.351 11.127 2 1561
- 0.055468 10 11 ack 40 ------- 0 2.351 11.127 2 1561
+ 0.0555 10 11 ack 40 ------- 0 2.402 13.50 0 1563
+ 0.055532 10 11 ack 40 ------- 0 2.400 13.48 0 1564
- 0.055596 10 11 ack 40 ------- 0 2.402 13.50 0 1563
- 0.055724 10 11 ack 40 ------- 0 2.400 13.48 0 1564
r 0.056107 10 11 tcp 40 ------- 0 10.857 14.841 0 1592
r 0.057334 10 11 ack 40 ------- 0 2.351 11.127 2 1561
r 0.057462 10 11 ack 40 ------- 0 2.402 13.50 0 1563
r 0.05759 10 11 ack 40 ------- 0 2.400 13.48 0 1564
+ 0.060839 10 11 tcp 40 ------- 0 2.979 13.589 0 1686
- 0.060839 10 11 tcp 40 ------- 0 2.979 13.589 0 1686
r 0.062704 10 11 tcp 40 ------- 0 2.979 13.589 0 1686
+ 0.063286 10 11 tcp 40 ------- 0 6.1020 11.665 0 1657
- 0.063286 10 11 tcp 40 ------- 0 6.1020 11.665 0 1657
+ 0.063801 10 11 tcp 1540 ------- 0 2.912 11.417 3 1759
- 0.063801 10 11 tcp 1540 ------- 0 2.912 11.417 3 1759
+ 0.065033 10 11 tcp 1540 ------- 0 2.912 11.417 4 1760
r 0.065151 10 11 tcp 40 ------- 0 6.1020 11.665 0 1657
+ 0.066265 10 11 tcp 1540 ------- 0 2.912 11.417 5 1761
+ 0.067497 10 11 tcp 1540 ------- 0 2.912 11.417 6 1762
+ 0.067561 10 11 tcp 40 ------- 0 1.1293 11.393 0 1065
+ 0.067689 10 11 tcp 40 ------- 0 2.962 13.572 0 1887
- 0.068729 10 11 tcp 1540 ------- 0 2.912 11.417 4 1760
+ 0.069455 10 11 ack 40 ------- 0 2.351 11.127 3 1936
r 0.070466 10 11 tcp 1540 ------- 0 2.912 11.417 3 1759
+ 0.070485 10 11 tcp 40 ------- 0 18.188 13.947 0 1884
+ 0.073065 10 11 ack 40 ------- 0 2.351 11.127 4 2060
- 0.073657 10 11 tcp 1540 ------- 0 2.912 11.417 5 1761
+ 0.073709 10 11 tcp 40 ------- 0 3.1073 11.468 0 1809
r 0.075394 10 11 tcp 1540 ------- 0 2.912 11.417 4 1760
+ 0.075977 10 11 tcp 40 ------- 0 22.308 11.931 0 1469
+ 0.076039 10 11 ack 40 ------- 0 9.711 13.206 0 1872
+ 0.076864 10 11 ack 40 ------- 0 10.528 15.335 0 2272
d 0.076864 10 11 ack 40 ------- 0 10.528 15.335 0 2272
- 0.078585 10 11 tcp 1540 ------- 0 2.912 11.417 6 1762
r 0.080322 10 11 tcp 1540 ------- 0 2.912 11.417 5 1761
+ 0.082741 10 11 tcp 40 ------- 0 2.951 12.397 0 2399
- 0.083513 10 11 tcp 40 ------- 0 1.1293 11.393 0 1065
- 0.083641 10 11 tcp 40 ------- 0 2.962 13.572 0 1887
- 0.083769 10 11 ack 40 ------- 0 2.351 11.127 3 1936
- 0.083897 10 11 tcp 40 ------- 0 18.188 13.947 0 1884
- 0.084025 10 11 ack 40 ------- 0 2.351 11.127 4 2060
- 0.084153 10 11 tcp 40 ------- 0 3.1073 11.468 0 1809
- 0.084281 10 11 tcp 40 ------- 0 22.308 11.931 0 1469
- 0.084409 10 11 ack 40 ------- 0 9.711 13.206 0 1872
- 0.084537 10 11 tcp 40 ------- 0 2.951 12.397 0 2399
r 0.08525 10 11 tcp 1540 ------- 0 2.912 11.417 6 1762
r 0.085378 10 11 tcp 40 ------- 0 1.1293 11.393 0 1065
r 0.085506 10 11 tcp 40 ------- 0 2.962 13.572 0 1887
r 0.085634 10 11 ack 40 ------- 0 2.351 11.127 3 1936
r 0.085762 10 11 tcp 40 ------- 0 18.188 13.947 0 1884
r 0.08589 10 11 ack 40 ------- 0 2.351 11.127 4 2060
+ 0.085992 10 11 tcp 40 ------- 0 19.320 11.883 0 2199
- 0.085992 10 11 tcp 40 ------- 0 19.320 11.883 0 2199
r 0.086018 10 11 tcp 40 ------- 0 3.1073 11.468 0 1809
r 0.086146 10 11 tcp 40 ------- 0 22.308 11.931 0 1469
r 0.086274 10 11 ack 40 ------- 0 9.711 13.206 0 1872
r 0.086402 10 11 tcp 40 ------- 0 2.951 12.397 0 2399
+ 0.086407 10 11 tcp 40 ------- 0 6.1015 11.660 0 1899
- 0.086407 10 11 tcp 40 ------- 0 6.1015 11.660 0 1899
r 0.087857 10 11 tcp 40 ------- 0 19.320 11.883 0 2199
r 0.088272 10 11 tcp 40 ------- 0 6.1015 11.660 0 1899
+ 0.09092 10 11 ack 40 ------- 0 0.214 11.6 1 2573
- 0.09092 10 11 ack 40 ------- 0 0.214 11.6 1 2573
+ 0.091442 10 11 tcp 40 ------- 0 10.809 13.753 0 2779
- 0.091442 10 11 tcp 40 ------- 0 10.809 13.753 0 2779
r 0.092785 10 11 ack 40 ------- 0 0.214 11.6 1 2573
r 0.093307 10 11 tcp 40 ------- 0 10.809 13.753 0 2779
+ 0.102028 10 11 tcp 40 ------- 0 18.160 11.816 0 2950
- 0.102028 10 11 tcp 40 ------- 0 18.160 11.816 0 2950
+ 0.102761 10 11 ack 40 ------- 0 2.351 11.127 5 3050
- 0.102761 10 11 ack 40 ------- 0 2.351 11.127 5 3050
r 0.103893 10 11 tcp 40 ------- 0 18.160 11.816 0 2950
r 0.104626 10 11 ack 40 ------- 0 2.351 11.127 5 3050
+ 0.107032 10 11 ack 40 ------- 0 0.214 11.6 2 3112
- 0.107032 10 11 ack 40 ------- 0 0.214 11.6 2 3112
r 0.108897 10 11 ack 40 ------- 0 0.214 11.6 2 3112
+ 0.112841 10 11 ack 40 ------- 0 2.351 11.127 6 3387
- 0.112841 10 11 ack 40 ------- 0 2.351 11.127 6 3387
+ 0.114137 10 11 tcp 1540 ------- 0 2.912 11.417 7 3388
- 0.114137 10 11 tcp 1540 ------- 0 2.912 11.417 7 3388
r 0.114706 10 11 ack 40 ------- 0 2.351 11.127 6 3387
+ 0.115369 10 11 tcp 1540 ------- 0 2.912 11.417 8 3389
+ 0.118007 10 11 tcp 1540 ------- 0 2.912 11.417 9 3504
- 0.119065 10 11 tcp 1540 ------- 0 2.912 11.417 8 3389
+ 0.119239 10 11 tcp 1540 ------- 0 2.912 11.417 10 3505
+ 0.120433 10 11 tcp 1540 ------- 0 6.1020 11.665 1 3104
r 0.120802 10 11 tcp 1540 ------- 0 2.912 11.417 7 3388
+ 0.120817 10 11 ack 40 ------- 0 9.714 13.209 0 3572
+ 0.122318 10 11 ack 40 ------- 0 18.631 13.1383 1 3598
- 0.123993 10 11 tcp 1540 ------- 0 2.912 11.417 9 3504
+ 0.12405 10 11 tcp 40 ------- 0 3.1071 11.466 0 3445
r 0.12573 10 11 tcp 1540 ------- 0 2.912 11.417 8 3389
+ 0.126713 10 11 tcp 1540 ------- 0 2.949 12.395 3 3765
+ 0.127945 10 11 tcp 1540 ------- 0 2.949 12.395 4 3766
- 0.128921 10 11 tcp 1540 ------- 0 2.912 11.417 10 3505
+ 0.129177 10 11 tcp 1540 ------- 0 2.912 11.417 11 3767
+ 0.130409 10 11 tcp 1540 ------- 0 2.912 11.417 12 3768
r 0.130658 10 11 tcp 1540 ------- 0 2.912 11.417 9 3504
+ 0.131641 10 11 tcp 1540 ------- 0 2.949 12.395 5 3769
+ 0.132873 10 11 tcp 1540 ------- 0 2.949 12.395 6 3770
d 0.132873 10 11 tcp 1540 ------- 0 2.949 12.395 6 3770
+ 0.132969 10 11 tcp 40 ------- 0 18.232 13.991 0 3637
d 0.132969 10 11 tcp 40 ------- 0 18.232 13.991 0 3637
+ 0.133001 10 11 ack 40 ------- 0 18.631 13.1383 2 3721
d 0.133001 10 11 ack 40 ------- 0 18.631 13.1383 2 3721
- 0.133849 10 11 tcp 1540 ------- 0 6.1020 11.665 1 3104
+ 0.134233 10 11 tcp 1540 ------- 0 2.912 11.417 13 3870
+ 0.135465 10 11 tcp 1540 ------- 0 2.912 11.417 14 3871
d 0.135465 10 11 tcp 1540 ------- 0 2.912 11.417 14 3871
+ 0.135497 10 11 tcp 40 ------- 0 17.306 11.803 0 2567
d 0.135497 10 11 tcp 40 ------- 0 17.306 11.803 0 2567
+ 0.135529 10 11 tcp 40 ------- 0 2.890 11.395 0 3962
d 0.135529 10 11 tcp 40 ------- 0 2.890 11.395 0 3962
r 0.135586 10 11 tcp 1540 ------- 0 2.912 11.417 10 3505
- 0.138777 10 11 ack 40 ------- 0 9.714 13.209 0 3572
- 0.138905 10 11 ack 40 ------- 0 18.631 13.1383 1 3598
- 0.139033 10 11 tcp 40 ------- 0 3.1071 11.466 0 3445
- 0.139161 10 11 tcp 1540 ------- 0 2.949 12.395 3 3765
+ 0.139321 10 11 ack 40 ------- 0 2.351 11.127 7 4218
+ 0.139656 10 11 tcp 40 ------- 0 19.284 11.847 0 4022
r 0.140514 10 11 tcp 1540 ------- 0 6.1020 11.665 1 3104
r 0.140642 10 11 ack 40 ------- 0 9.714 13.209 0 3572
r 0.14077 10 11 ack 40 ------- 0 18.631 13.1383 1 3598
r 0.140898 10 11 tcp 40 ------- 0 3.1071 11.466 0 3445
- 0.144089 10 11 tcp 1540 ------- 0 2.949 12.395 4 3766
+ 0.144871 10 11 tcp 40 ------- 0 19.267 11.830 0 4188
+ 0.145481 10 11 ack 40 ------- 0 2.351 11.127 8 4410
r 0.145826 10 11 tcp 1540 ------- 0 2.949 12.395 3 3765
+ 0.148909 10 11 ack 40 ------- 0 9.716 13.211 0 4331
- 0.149017 10 11 tcp 1540 ------- 0 2.912 11.417 11 3767
r 0.150754 10 11 tcp 1540 ------- 0 2.949 12.395 4 3766
+ 0.151435 10 11 ack 40 ------- 0 2.351 11.127 9 4604
+ 0.152699 10 11 tcp 40 ------- 0 3.1038 11.433 0 4217
d 0.152699 10 11 tcp 40 ------- 0 3.1038 11.433 0 4217
+ 0.152763 10 11 tcp 40 ------- 0 19.259 11.822 0 4377
d 0.152763 10 11 tcp 40 ------- 0 19.259 11.822 0 4377
+ 0.153837 10 11 tcp 1540 ------- 0 6.1015 11.660 1 4145
d 0.153837 10 11 tcp 1540 ------- 0 6.1015 11.660 1 4145
- 0.153945 10 11 tcp 1540 ------- 0 2.912 11.417 12 3768
+ 0.15454 10 11 rtProtoDV 26 ------- 0 10.1115 11.1480 -1 4826
r 0.155682 10 11 tcp 1540 ------- 0 2.912 11.417 11 3767
+ 0.157048 10 11 tcp 40 ------- 0 21.309 11.917 0 3227
d 0.157048 10 11 tcp 40 ------- 0 21.309 11.917 0 3227
+ 0.157144 10 11 ack 40 ------- 0 2.351 11.127 10 4801
d 0.157144 10 11 ack 40 ------- 0 2.351 11.127 10 4801
+ 0.158765 10 11 tcp 1540 ------- 0 6.1015 11.660 2 4146
d 0.158765 10 11 tcp 1540 ------- 0 6.1015 11.660 2 4146
- 0.158873 10 11 tcp 1540 ------- 0 2.949 12.395 5 3769
+ 0.158939 10 11 tcp 40 ------- 0 22.350 11.973 0 3986
r 0.16061 10 11 tcp 1540 ------- 0 2.912 11.417 12 3768
+ 0.163528 10 11 tcp 40 ------- 0 3.1084 11.479 0 4598
d 0.163528 10 11 tcp 40 ------- 0 3.1084 11.479 0 4598
+ 0.163624 10 11 tcp 40 ------- 0 19.277 11.840 0 4798
d 0.163624 10 11 tcp 40 ------- 0 19.277 11.840 0 4798
- 0.163801 10 11 tcp 1540 ------- 0 2.912 11.417 13 3870
+ 0.164077 10 11 tcp 40 ------- 0 6.1014 11.659 0 4437
+ 0.165118 10 11 tcp 40 ------- 0 3.1080 11.475 0 4778
d 0.165118 10 11 tcp 40 ------- 0 3.1080 11.475 0 4778
r 0.165538 10 11 tcp 1540 ------- 0 2.949 12.395 5 3769
+ 0.16612 10 11 ack 40 ------- 0 0.234 11.26 0 5038
d 0.16612 10 11 ack 40 ------- 0 0.234 11.26 0 5038
- 0.168729 10 11 ack 40 ------- 0 2.351 11.127 7 4218
- 0.168857 10 11 tcp 40 ------- 0 19.284 11.847 0 4022
- 0.168985 10 11 tcp 40 ------- 0 19.267 11.830 0 4188
- 0.169113 10 11 ack 40 ------- 0 2.351 11.127 8 4410
- 0.169241 10 11 ack 40 ------- 0 9.716 13.211 0 4331
- 0.169369 10 11 ack 40 ------- 0 2.351 11.127 9 4604
- 0.169497 10 11 rtProtoDV 26 ------- 0 10.1115 11.1480 -1 4826
- 0.16958 10 11 tcp 40 ------- 0 22.350 11.973 0 3986
- 0.169708 10 11 tcp 40 ------- 0 6.1014 11.659 0 4437
+ 0.170304 10 11 ack 40 ------- 0 10.483 13.291 0 5421
- 0.170304 10 11 ack 40 ------- 0 10.483 13.291 0 5421
r 0.170466 10 11 tcp 1540 ------- 0 2.912 11.417 13 3870
r 0.170594 10 11 ack 40 ------- 0 2.351 11.127 7 4218
r 0.170722 10 11 tcp 40 ------- 0 19.284 11.847 0 4022
r 0.17085 10 11 tcp 40 ------- 0 19.267 11.830 0 4188
r 0.170978 10 11 ack 40 ------- 0 2.351 11.127 8 4410
r 0.171106 10 11 ack 40 ------- 0 9.716 13.211 0 4331
r 0.171234 10 11 ack 40 ------- 0 2.351 11.127 9 4604
r 0.171317 10 11 rtProtoDV 26 ------- 0 10.1115 11.1480 -1 4826
r 0.171445 10 11 tcp 40 ------- 0 22.350 11.973 0 3986
r 0.171573 10 11 tcp 40 ------- 0 6.1014 11.659 0 4437
r 0.172169 10 11 ack 40 ------- 0 10.483 13.291 0 5421
+ 0.172376 10 11 tcp 40 ------- 0 3.1094 11.489 0 4963
- 0.172376 10 11 tcp 40 ------- 0 3.1094 11.489 0 4963
r 0.174241 10 11 tcp 40 ------- 0 3.1094 11.489 0 4963
+ 0.175529 10 11 ack 40 ------- 0 2.359 11.135 0 5582
- 0.175529 10 11 ack 40 ------- 0 2.359 11.135 0 5582
r 0.177394 10 11 ack 40 ------- 0 2.359 11.135 0 5582
+ 0.181596 10 11 ack 40 ------- 0 18.581 12.1066 1 5704
- 0.181596 10 11 ack 40 ------- 0 18.581 12.1066 1 5704
r 0.183461 10 11 ack 40 ------- 0 18.581 12.1066 1 5704
+ 0.187884 10 11 tcp 40 ------- 0 19.285 11.848 0 5749
- 0.187884 10 11 tcp 40 ------- 0 19.285 11.848 0 5749
r 0.189749 10 11 tcp 40 ------- 0 19.285 11.848 0 5749
+ 0.190377 10 11 ack 40 ------- 0 2.351 11.127 11 6054
- 0.190377 10 11 ack 40 ------- 0 2.351 11.127 11 6054
+ 0.190942 10 11 ack 40 ------- 0 18.581 12.1066 2 6015
- 0.190942 10 11 ack 40 ------- 0 18.581 12.1066 2 6015
r 0.192242 10 11 ack 40 ------- 0 2.351 11.127 11 6054
r 0.192807 10 11 ack 40 ------- 0 18.581 12.1066 2 6015
+ 0.192969 10 11 ack 40 ------- 0 2.351 11.127 12 6162
- 0.192969 10 11 ack 40 ------- 0 2.351 11.127 12 6162
r 0.194834 10 11 ack 40 ------- 0 2.351 11.127 12 6162
+ 0.19739 10 11 ack 40 ------- 0 18.569 12.1054 0 6230
- 0.19739 10 11 ack 40 ------- 0 18.569 12.1054 0 6230
r 0.199255 10 11 ack 40 ------- 0 18.569 12.1054 0 6230
+ 0.204013 10 11 tcp 40 ------- 0 9.1056 12.470 0 5578
- 0.204013 10 11 tcp 40 ------- 0 9.1056 12.470 0 5578
+ 0.204269 10 11 tcp 40 ------- 0 9.1051 12.465 0 5776
- 0.204269 10 11 tcp 40 ------- 0 9.1051 12.465 0 5776
+ 0.204333 10 11 ack 40 ------- 0 2.351 11.127 13 6579
- 0.204397 10 11 ack 40 ------- 0 2.351 11.127 13 6579
r 0.205878 10 11 tcp 40 ------- 0 9.1056 12.470 0 5578
r 0.206134 10 11 tcp 40 ------- 0 9.1051 12.465 0 5776
r 0.206262 10 11 ack 40 ------- 0 2.351 11.127 13 6579
+ 0.209688 10 11 ack 40 ------- 0 0.214 11.6 3 6654
- 0.209688 10 11 ack 40 ------- 0 0.214 11.6 3 6654
r 0.211553 10 11 ack 40 ------- 0 0.214 11.6 3 6654
+ 0.212152 10 11 ack 40 ------- 0 2.351 11.127 14 6830
- 0.212152 10 11 ack 40 ------- 0 2.351 11.127 14 6830
+ 0.213384 10 11 tcp 1540 ------- 0 2.912 11.417 15 6832
- 0.213384 10 11 tcp 1540 ------- 0 2.912 11.417 15 6832
r 0.214017 10 11 ack 40 ------- 0 2.351 11.127 14 6830
+ 0.214616 10 11 tcp 1540 ------- 0 2.912 11.417 16 6833
+ 0.21708 10 11 tcp 1540 ------- 0 2.912 11.417 17 6876
- 0.218312 10 11 tcp 1540 ------- 0 2.912 11.417 16 6833
+ 0.218312 10 11 tcp 1540 ------- 0 2.912 11.417 18 6877
+ 0.218359 10 11 tcp 1540 ------- 0 6.1020 11.665 3 6590
+ 0.219544 10 11 tcp 1540 ------- 0 2.912 11.417 19 6878
r 0.220049 10 11 tcp 1540 ------- 0 2.912 11.417 15 6832
+ 0.220776 10 11 tcp 1540 ------- 0 2.912 11.417 20 6879
+ 0.222008 10 11 tcp 1540 ------- 0 2.912 11.417 21 6880
- 0.22324 10 11 tcp 1540 ------- 0 2.912 11.417 17 6876
+ 0.22324 10 11 tcp 1540 ------- 0 2.912 11.417 22 6881
+ 0.223287 10 11 tcp 1540 ------- 0 6.1020 11.665 4 6591
+ 0.224472 10 11 tcp 1540 ------- 0 2.912 11.417 23 6882
+ 0.224536 10 11 ack 40 ------- 0 2.351 11.127 15 6955
+ 0.2246 10 11 ack 40 ------- 0 2.351 11.127 16 7078
d 0.2246 10 11 ack 40 ------- 0 2.351 11.127 16 7078
r 0.224977 10 11 tcp 1540 ------- 0 2.912 11.417 16 6833
+ 0.225864 10 11 tcp 1540 ------- 0 1.1293 11.393 1 5231
d 0.225864 10 11 tcp 1540 ------- 0 1.1293 11.393 1 5231
+ 0.227096 10 11 tcp 1540 ------- 0 1.1293 11.393 2 5232
d 0.227096 10 11 tcp 1540 ------- 0 1.1293 11.393 2 5232
+ 0.22716 10 11 tcp 40 ------- 0 19.310 11.873 0 7041
d 0.22716 10 11 tcp 40 ------- 0 19.310 11.873 0 7041
+ 0.227192 10 11 ack 40 ------- 0 2.351 11.127 18 7332
d 0.227192 10 11 ack 40 ------- 0 2.351 11.127 18 7332
- 0.228168 10 11 tcp 1540 ------- 0 2.912 11.417 18 6877
+ 0.228189 10 11 ack 40 ------- 0 2.351 11.127 19 7411
r 0.229905 10 11 tcp 1540 ------- 0 2.912 11.417 17 6876
+ 0.230311 10 11 tcp 1540 ------- 0 3.1073 11.468 1 7008
d 0.230311 10 11 tcp 1540 ------- 0 3.1073 11.468 1 7008
+ 0.231575 10 11 tcp 1540 ------- 0 3.1073 11.468 2 7009
d 0.231575 10 11 tcp 1540 ------- 0 3.1073 11.468 2 7009
+ 0.231607 10 11 ack 40 ------- 0 2.351 11.127 20 7516
d 0.231607 10 11 ack 40 ------- 0 2.351 11.127 20 7516
- 0.233096 10 11 tcp 1540 ------- 0 6.1020 11.665 3 6590
r 0.234833 10 11 tcp 1540 ------- 0 2.912 11.417 18 6877
+ 0.23724 10 11 tcp 40 ------- 0 3.1062 11.457 0 7377
+ 0.237336 10 11 ack 40 ------- 0 0.214 11.6 5 7654
d 0.237336 10 11 ack 40 ------- 0 0.214 11.6 5 7654
+ 0.237931 10 11 ack 40 ------- 0 10.511 14.219 0 7866
d 0.237931 10 11 ack 40 ------- 0 10.511 14.219 0 7866
- 0.238024 10 11 tcp 1540 ------- 0 2.912 11.417 19 6878
+ 0.238493 10 11 ack 40 ------- 0 2.359 11.135 1 7792
r 0.239761 10 11 tcp 1540 ------- 0 6.1020 11.665 3 6590
+ 0.2398 10 11 ack 40 ------- 0 2.359 11.135 2 7842
d 0.2398 10 11 ack 40 ------- 0 2.359 11.135 2 7842
+ 0.242328 10 11 ack 40 ------- 0 2.351 11.127 21 7897
d 0.242328 10 11 ack 40 ------- 0 2.351 11.127 21 7897
- 0.242952 10 11 tcp 1540 ------- 0 2.912 11.417 20 6879
+ 0.243592 10 11 ack 40 ------- 0 2.351 11.127 22 7930
r 0.244689 10 11 tcp 1540 ------- 0 2.912 11.417 19 6878
+ 0.246088 10 11 tcp 40 ------- 0 19.274 11.837 0 7512
d 0.246088 10 11 tcp 40 ------- 0 19.274 11.837 0 7512
+ 0.24612 10 11 ack 40 ------- 0 0.214 11.6 6 7714
d 0.24612 10 11 ack 40 ------- 0 0.214 11.6 6 7714
+ 0.246184 10 11 tcp 40 ------- 0 3.1102 11.497 0 7555
d 0.246184 10 11 tcp 40 ------- 0 3.1102 11.497 0 7555
+ 0.246216 10 11 tcp 40 ------- 0 2.907 11.412 0 8077
d 0.246216 10 11 tcp 40 ------- 0 2.907 11.412 0 8077
- 0.24788 10 11 tcp 1540 ------- 0 2.912 11.417 21 6880
+ 0.248171 10 11 tcp 1540 ------- 0 10.809 13.753 1 8211
+ 0.248171 10 11 tcp 1540 ------- 0 10.809 13.753 2 8212
d 0.248171 10 11 tcp 1540 ------- 0 10.809 13.753 2 8212
r 0.249617 10 11 tcp 1540 ------- 0 2.912 11.417 20 6879
+ 0.251005 10 11 ack 40 ------- 0 2.351 11.127 23 8219
d 0.251005 10 11 ack 40 ------- 0 2.351 11.127 23 8219
- 0.252808 10 11 tcp 1540 ------- 0 2.912 11.417 22 6881
+ 0.253469 10 11 ack 40 ------- 0 2.351 11.127 24 8326
r 0.254545 10 11 tcp 1540 ------- 0 2.912 11.417 21 6880
- 0.257736 10 11 tcp 1540 ------- 0 6.1020 11.665 4 6591
r 0.259473 10 11 tcp 1540 ------- 0 2.912 11.417 22 6881
+ 0.260892 10 11 ack 40 ------- 0 2.351 11.127 25 8588
+ 0.260924 10 11 ack 40 ------- 0 2.356 11.132 0 8590
d 0.260924 10 11 ack 40 ------- 0 2.356 11.132 0 8590
- 0.262664 10 11 tcp 1540 ------- 0 2.912 11.417 23 6882
+ 0.263351 10 11 tcp 1540 ------- 0 6.1014 11.659 1 8012
+ 0.26342 10 11 tcp 1540 ------- 0 2.949 12.395 7 8593
d 0.26342 10 11 tcp 1540 ------- 0 2.949 12.395 7 8593
r 0.264401 10 11 tcp 1540 ------- 0 6.1020 11.665 4 6591
+ 0.264652 10 11 tcp 1540 ------- 0 2.949 12.395 8 8594
d 0.264652 10 11 tcp 1540 ------- 0 2.949 12.395 8 8594
+ 0.266076 10 11 ack 40 ------- 0 2.351 11.127 26 8674
d 0.266076 10 11 ack 40 ------- 0 2.351 11.127 26 8674
- 0.267592 10 11 ack 40 ------- 0 2.351 11.127 15 6955
- 0.26772 10 11 ack 40 ------- 0 2.351 11.127 19 7411
- 0.267848 10 11 tcp 40 ------- 0 3.1062 11.457 0 7377
- 0.267976 10 11 ack 40 ------- 0 2.359 11.135 1 7792
- 0.268104 10 11 ack 40 ------- 0 2.351 11.127 22 7930
- 0.268232 10 11 tcp 1540 ------- 0 10.809 13.753 1 8211
+ 0.268279 10 11 tcp 1540 ------- 0 6.1014 11.659 2 8013
r 0.269329 10 11 tcp 1540 ------- 0 2.912 11.417 23 6882
+ 0.269419 10 11 ack 40 ------- 0 10.551 15.358 0 9003
r 0.269457 10 11 ack 40 ------- 0 2.351 11.127 15 6955
r 0.269585 10 11 ack 40 ------- 0 2.351 11.127 19 7411
r 0.269713 10 11 tcp 40 ------- 0 3.1062 11.457 0 7377
r 0.269841 10 11 ack 40 ------- 0 2.359 11.135 1 7792
r 0.269969 10 11 ack 40 ------- 0 2.351 11.127 22 7930
+ 0.271068 10 11 ack 40 ------- 0 2.351 11.127 27 8918
+ 0.2723 10 11 tcp 1540 ------- 0 2.962 13.572 1 8922
- 0.27316 10 11 ack 40 ------- 0 2.351 11.127 24 8326
- 0.273288 10 11 ack 40 ------- 0 2.351 11.127 25 8588
- 0.273416 10 11 tcp 1540 ------- 0 6.1014 11.659 1 8012
+ 0.273532 10 11 tcp 1540 ------- 0 2.962 13.572 2 8923
r 0.274897 10 11 tcp 1540 ------- 0 10.809 13.753 1 8211
r 0.275025 10 11 ack 40 ------- 0 2.351 11.127 24 8326
r 0.275153 10 11 ack 40 ------- 0 2.351 11.127 25 8588
+ 0.27606 10 11 tcp 1540 ------- 0 2.949 12.395 9 8971
+ 0.277292 10 11 tcp 1540 ------- 0 2.949 12.395 10 8972
- 0.278344 10 11 tcp 1540 ------- 0 6.1014 11.659 2 8013
+ 0.278684 10 11 tcp 40 ------- 0 19.272 11.835 0 8809
+ 0.278716 10 11 tcp 40 ------- 0 0.928 11.324 0 8996
+ 0.278812 10 11 ack 40 ------- 0 0.254 11.46 0 9077
+ 0.278876 10 11 ack 40 ------- 0 1.489 11.63 0 8276
d 0.278876 10 11 ack 40 ------- 0 1.489 11.63 0 8276
+ 0.278908 10 11 ack 40 ------- 0 1.485 11.59 0 8277
d 0.278908 10 11 ack 40 ------- 0 1.485 11.59 0 8277
+ 0.27894 10 11 tcp 40 ------- 0 19.334 11.897 0 8997
d 0.27894 10 11 tcp 40 ------- 0 19.334 11.897 0 8997
r 0.280081 10 11 tcp 1540 ------- 0 6.1014 11.659 1 8012
- 0.283272 10 11 ack 40 ------- 0 10.551 15.358 0 9003
- 0.2834 10 11 ack 40 ------- 0 2.351 11.127 27 8918
- 0.283528 10 11 tcp 1540 ------- 0 2.962 13.572 1 8922
r 0.285009 10 11 tcp 1540 ------- 0 6.1014 11.659 2 8013
r 0.285137 10 11 ack 40 ------- 0 10.551 15.358 0 9003
r 0.285265 10 11 ack 40 ------- 0 2.351 11.127 27 8918
+ 0.286077 10 11 tcp 40 ------- 0 16.373 12.677 0 6142
+ 0.287373 10 11 ack 40 ------- 0 18.596 12.1081 0 8653
- 0.288456 10 11 tcp 1540 ------- 0 2.962 13.572 2 8923
+ 0.289901 10 11 ack 40 ------- 0 0.242 11.34 0 9262
+ 0.289933 10 11 tcp 40 ------- 0 0.934 11.330 0 9317
+ 0.289965 10 11 tcp 40 ------- 0 1.1262 11.362 0 8634
d 0.289965 10 11 tcp 40 ------- 0 1.1262 11.362 0 8634
+ 0.289997 10 11 tcp 40 ------- 0 19.300 11.863 0 9405
d 0.289997 10 11 tcp 40 ------- 0 19.300 11.863 0 9405
r 0.290193 10 11 tcp 1540 ------- 0 2.962 13.572 1 8922
- 0.293384 10 11 tcp 1540 ------- 0 2.949 12.395 9 8971
r 0.295121 10 11 tcp 1540 ------- 0 2.962 13.572 2 8923
- 0.298312 10 11 tcp 1540 ------- 0 2.949 12.395 10 8972
r 0.300049 10 11 tcp 1540 ------- 0 2.949 12.395 9 8971
+ 0.300598 10 11 ack 40 ------- 0 2.351 11.127 28 10054
+ 0.30183 10 11 tcp 1540 ------- 0 3.1094 11.489 1 9681
+ 0.303062 10 11 tcp 1540 ------- 0 3.1094 11.489 2 9682
d 0.303062 10 11 tcp 1540 ------- 0 3.1094 11.489 2 9682
- 0.30324 10 11 tcp 40 ------- 0 19.272 11.835 0 8809
- 0.303368 10 11 tcp 40 ------- 0 0.928 11.324 0 8996
- 0.303496 10 11 ack 40 ------- 0 0.254 11.46 0 9077
- 0.303624 10 11 tcp 40 ------- 0 16.373 12.677 0 6142
- 0.303752 10 11 ack 40 ------- 0 18.596 12.1081 0 8653
- 0.30388 10 11 ack 40 ------- 0 0.242 11.34 0 9262
- 0.304008 10 11 tcp 40 ------- 0 0.934 11.330 0 9317
- 0.304136 10 11 ack 40 ------- 0 2.351 11.127 28 10054
- 0.304264 10 11 tcp 1540 ------- 0 3.1094 11.489 1 9681
+ 0.304717 10 11 ack 40 ------- 0 2.351 11.127 29 10376
r 0.304977 10 11 tcp 1540 ------- 0 2.949 12.395 10 8972
r 0.305105 10 11 tcp 40 ------- 0 19.272 11.835 0 8809
r 0.305233 10 11 tcp 40 ------- 0 0.928 11.324 0 8996
r 0.305361 10 11 ack 40 ------- 0 0.254 11.46 0 9077
r 0.305489 10 11 tcp 40 ------- 0 16.373 12.677 0 6142
r 0.305617 10 11 ack 40 ------- 0 18.596 12.1081 0 8653
r 0.305745 10 11 ack 40 ------- 0 0.242 11.34 0 9262
r 0.305873 10 11 tcp 40 ------- 0 0.934 11.330 0 9317
+ 0.305949 10 11 tcp 1540 ------- 0 2.912 11.417 25 10379
r 0.306001 10 11 ack 40 ------- 0 2.351 11.127 28 10054
+ 0.308413 10 11 tcp 1540 ------- 0 2.912 11.417 26 10380
- 0.309192 10 11 ack 40 ------- 0 2.351 11.127 29 10376
- 0.30932 10 11 tcp 1540 ------- 0 2.912 11.417 25 10379
+ 0.309645 10 11 tcp 1540 ---A--- 0 2.912 11.417 14 10384
+ 0.310877 10 11 tcp 1540 ------- 0 2.949 12.395 11 10394
r 0.310929 10 11 tcp 1540 ------- 0 3.1094 11.489 1 9681
r 0.311057 10 11 ack 40 ------- 0 2.351 11.127 29 10376
+ 0.312109 10 11 tcp 1540 ------- 0 2.949 12.395 12 10395
+ 0.312173 10 11 ack 40 ------- 0 2.373 11.149 0 10403
- 0.314248 10 11 tcp 1540 ------- 0 2.912 11.417 26 10380
r 0.315985 10 11 tcp 1540 ------- 0 2.912 11.417 25 10379
+ 0.318429 10 11 ack 40 ------- 0 2.351 11.127 29 10770
+ 0.318493 10 11 tcp 40 ------- 0 16.356 11.779 0 6935
+ 0.318589 10 11 ack 40 ------- 0 0.214 11.6 7 10691
+ 0.318621 10 11 ack 40 ------- 0 2.351 11.127 29 10872
+ 0.318653 10 11 tcp 40 ------- 0 18.185 13.944 0 9766
- 0.319176 10 11 tcp 1540 ---A--- 0 2.912 11.417 14 10384
+ 0.319206 10 11 tcp 40 ------- 0 18.166 12.770 0 9823
r 0.320913 10 11 tcp 1540 ------- 0 2.912 11.417 26 10380
+ 0.321734 10 11 tcp 40 ------- 0 18.194 13.953 0 9901
d 0.321734 10 11 tcp 40 ------- 0 18.194 13.953 0 9901
+ 0.321885 10 11 ack 40 ------- 0 2.351 11.127 29 11071
d 0.321885 10 11 ack 40 ------- 0 2.351 11.127 29 11071
- 0.324104 10 11 tcp 1540 ------- 0 2.949 12.395 11 10394
r 0.325841 10 11 tcp 1540 ---A--- 0 2.912 11.417 14 10384
+ 0.326909 10 11 ack 40 ------- 0 2.351 11.127 29 11283
+ 0.328205 10 11 ack 40 ------- 0 2.351 11.127 29 11331
d 0.328205 10 11 ack 40 ------- 0 2.351 11.127 29 11331
- 0.329032 10 11 tcp 1540 ------- 0 2.949 12.395 12 10395
r 0.330769 10 11 tcp 1540 ------- 0 2.949 12.395 11 10394
+ 0.331454 10 11 tcp 40 ------- 0 1.1266 11.366 0 10043
+ 0.331486 10 11 ack 40 ------- 0 18.595 12.1080 0 10477
d 0.331486 10 11 ack 40 ------- 0 18.595 12.1080 0 10477
+ 0.33275 10 11 ack 40 ------- 0 0.214 11.6 8 11349
d 0.33275 10 11 ack 40 ------- 0 0.214 11.6 8 11349
+ 0.332782 10 11 tcp 40 ------- 0 3.1070 11.465 0 10761
d 0.332782 10 11 tcp 40 ------- 0 3.1070 11.465 0 10761
- 0.33396 10 11 ack 40 ------- 0 2.373 11.149 0 10403
+ 0.334046 10 11 tcp 40 ------- 0 1.1282 11.382 0 10278
- 0.334088 10 11 ack 40 ------- 0 2.351 11.127 29 10770
- 0.334216 10 11 tcp 40 ------- 0 16.356 11.779 0 6935
- 0.334344 10 11 ack 40 ------- 0 0.214 11.6 7 10691
- 0.334472 10 11 ack 40 ------- 0 2.351 11.127 29 10872
+ 0.334525 10 11 ack 40 ------- 0 2.359 11.135 3 11601
- 0.3346 10 11 tcp 40 ------- 0 18.185 13.944 0 9766
- 0.334728 10 11 tcp 40 ------- 0 18.166 12.770 0 9823
- 0.334856 10 11 ack 40 ------- 0 2.351 11.127 29 11283
- 0.334984 10 11 tcp 40 ------- 0 1.1266 11.366 0 10043
- 0.335112 10 11 tcp 40 ------- 0 1.1282 11.382 0 10278
- 0.33524 10 11 ack 40 ------- 0 2.359 11.135 3 11601
r 0.335697 10 11 tcp 1540 ------- 0 2.949 12.395 12 10395
r 0.335825 10 11 ack 40 ------- 0 2.373 11.149 0 10403
r 0.335953 10 11 ack 40 ------- 0 2.351 11.127 29 10770
r 0.336081 10 11 tcp 40 ------- 0 16.356 11.779 0 6935
r 0.336209 10 11 ack 40 ------- 0 0.214 11.6 7 10691
+ 0.336328 10 11 tcp 40 ------- 0 16.398 13.914 0 7449
- 0.336328 10 11 tcp 40 ------- 0 16.398 13.914 0 7449
r 0.336337 10 11 ack 40 ------- 0 2.351 11.127 29 10872
r 0.336465 10 11 tcp 40 ------- 0 18.185 13.944 0 9766
r 0.336593 10 11 tcp 40 ------- 0 18.166 12.770 0 9823
r 0.336721 10 11 ack 40 ------- 0 2.351 11.127 29 11283
r 0.336849 10 11 tcp 40 ------- 0 1.1266 11.366 0 10043
r 0.336977 10 11 tcp 40 ------- 0 1.1282 11.382 0 10278
r 0.337105 10 11 ack 40 ------- 0 2.359 11.135 3 11601
r 0.338193 10 11 tcp 40 ------- 0 16.398 13.914 0 7449
+ 0.341352 10 11 ack 40 ------- 0 2.359 11.135 4 11811
- 0.341352 10 11 ack 40 ------- 0 2.359 11.135 4 11811