+ 0.002844 2 16 tcp 40 ------- 0 2.1085 16.483 0 33
- 0.002844 2 16 tcp 40 ------- 0 2.1085 16.483 0 33
+ 0.003055 2 16 rtProtoDV 26 ------- 0 2.1272 16.1129 -1 40
- 0.003055 2 16 rtProtoDV 26 ------- 0 2.1272 16.1129 -1 40
+ 0.005097 2 16 rtProtoDV 26 ------- 0 2.1272 16.1129 -1 80
- 0.005097 2 16 rtProtoDV 26 ------- 0 2.1272 16.1129 -1 80
+ 0.007102 2 16 rtProtoDV 26 ------- 0 2.1272 16.1129 -1 156
- 0.007102 2 16 rtProtoDV 26 ------- 0 2.1272 16.1129 -1 156
+ 0.007214 2 16 rtProtoDV 26 ------- 0 2.1272 16.1129 -1 166
- 0.007214 2 16 rtProtoDV 26 ------- 0 2.1272 16.1129 -1 166
+ 0.008006 2 16 rtProtoDV 26 ------- 0 2.1272 16.1129 -1 202
- 0.008006 2 16 rtProtoDV 26 ------- 0 2.1272 16.1129 -1 202
+ 0.008017 2 16 rtProtoDV 26 ------- 0 2.1272 16.1129 -1 206
- 0.008089 2 16 rtProtoDV 26 ------- 0 2.1272 16.1129 -1 206
r 0.009488 2 16 tcp 40 ------- 0 2.1085 16.483 0 33
r 0.009654 2 16 rtProtoDV 26 ------- 0 2.1272 16.1129 -1 40
+ 0.011045 2 16 rtProtoDV 26 ------- 0 2.1272 16.1129 -1 366
- 0.011045 2 16 rtProtoDV 26 ------- 0 2.1272 16.1129 -1 366
+ 0.011658 2 16 rtProtoDV 26 ------- 0 2.1272 16.1129 -1 405
- 0.011658 2 16 rtProtoDV 26 ------- 0 2.1272 16.1129 -1 405
r 0.011696 2 16 rtProtoDV 26 ------- 0 2.1272 16.1129 -1 80
r 0.013701 2 16 rtProtoDV 26 ------- 0 2.1272 16.1129 -1 156
+ 0.013786 2 16 rtProtoDV 26 ------- 0 2.1272 16.1129 -1 506
- 0.013786 2 16 rtProtoDV 26 ------- 0 2.1272 16.1129 -1 506
r 0.013812 2 16 rtProtoDV 26 ------- 0 2.1272 16.1129 -1 166
+ 0.014173 2 16 rtProtoDV 26 ------- 0 2.1272 16.1129 -1 526
- 0.014173 2 16 rtProtoDV 26 ------- 0 2.1272 16.1129 -1 526
+ 0.014197 2 16 tcp 40 ------- 0 18.294 16.783 0 421
- 0.014257 2 16 tcp 40 ------- 0 18.294 16.783 0 421
r 0.014605 2 16 rtProtoDV 26 ------- 0 2.1272 16.1129 -1 202
r 0.014688 2 16 rtProtoDV 26 ------- 0 2.1272 16.1129 -1 206
+ 0.015841 2 16 ack 40 ------- 0 2.490 16.30 0 587
- 0.015841 2 16 ack 40 ------- 0 2.490 16.30 0 587
+ 0.016131 2 16 tcp 1540 ------- 0 2.1085 16.483 1 600
- 0.016131 2 16 tcp 1540 ------- 0 2.1085 16.483 1 600
+ 0.016131 2 16 tcp 1540 ------- 0 2.1085 16.483 2 601
r 0.017644 2 16 rtProtoDV 26 ------- 0 2.1272 16.1129 -1 366
+ 0.017693 2 16 rtProtoDV 26 ------- 0 2.1272 16.1129 -1 666
r 0.018257 2 16 rtProtoDV 26 ------- 0 2.1272 16.1129 -1 405
r 0.020385 2 16 rtProtoDV 26 ------- 0 2.1272 16.1129 -1 506
r 0.020772 2 16 rtProtoDV 26 ------- 0 2.1272 16.1129 -1 526
r 0.0209 2 16 tcp 40 ------- 0 18.294 16.783 0 421
- 0.021059 2 16 tcp 1540 ------- 0 2.1085 16.483 2 601
r 0.022484 2 16 ack 40 ------- 0 2.490 16.30 0 587
- 0.025987 2 16 rtProtoDV 26 ------- 0 2.1272 16.1129 -1 666
r 0.027574 2 16 tcp 1540 ------- 0 2.1085 16.483 1 600
r 0.032502 2 16 tcp 1540 ------- 0 2.1085 16.483 2 601
r 0.032585 2 16 rtProtoDV 26 ------- 0 2.1272 16.1129 -1 666
+ 0.033101 2 16 tcp 1540 ------- 0 18.294 16.783 1 985
- 0.033101 2 16 tcp 1540 ------- 0 18.294 16.783 1 985
+ 0.033928 2 16 ack 40 ------- 0 2.490 16.30 1 1084
+ 0.034333 2 16 tcp 1540 ------- 0 18.294 16.783 2 986
- 0.038029 2 16 ack 40 ------- 0 2.490 16.30 1 1084
- 0.038157 2 16 tcp 1540 ------- 0 18.294 16.783 2 986
+ 0.038856 2 16 ack 40 ------- 0 2.490 16.30 2 1197
+ 0.039195 2 16 tcp 1540 ------- 0 2.1085 16.483 3 1205
+ 0.039195 2 16 tcp 1540 ------- 0 2.1085 16.483 4 1206
+ 0.039323 2 16 tcp 1540 ------- 0 2.1085 16.483 5 1212
+ 0.039323 2 16 tcp 1540 ------- 0 2.1085 16.483 6 1213
- 0.043085 2 16 ack 40 ------- 0 2.490 16.30 2 1197
- 0.043213 2 16 tcp 1540 ------- 0 2.1085 16.483 3 1205
r 0.044544 2 16 tcp 1540 ------- 0 18.294 16.783 1 985
r 0.044672 2 16 ack 40 ------- 0 2.490 16.30 1 1084
- 0.048141 2 16 tcp 1540 ------- 0 2.1085 16.483 4 1206
r 0.0496 2 16 tcp 1540 ------- 0 18.294 16.783 2 986
r 0.049728 2 16 ack 40 ------- 0 2.490 16.30 2 1197
- 0.053069 2 16 tcp 1540 ------- 0 2.1085 16.483 5 1212
r 0.054656 2 16 tcp 1540 ------- 0 2.1085 16.483 3 1205
+ 0.056115 2 16 ack 40 ------- 0 2.490 16.30 3 1648
+ 0.056744 2 16 tcp 1540 ------- 0 18.294 16.783 3 1572
+ 0.057171 2 16 ack 40 ------- 0 9.791 16.228 0 1516
+ 0.057976 2 16 tcp 1540 ------- 0 18.294 16.783 4 1573
- 0.057997 2 16 tcp 1540 ------- 0 2.1085 16.483 6 1213
r 0.059584 2 16 tcp 1540 ------- 0 2.1085 16.483 4 1206
+ 0.061043 2 16 ack 40 ------- 0 2.490 16.30 4 1783
+ 0.062789 2 16 tcp 40 ------- 0 18.293 16.782 0 1771
- 0.062925 2 16 ack 40 ------- 0 2.490 16.30 3 1648
- 0.063053 2 16 tcp 1540 ------- 0 18.294 16.783 3 1572
r 0.064512 2 16 tcp 1540 ------- 0 2.1085 16.483 5 1212
+ 0.066099 2 16 ack 40 ------- 0 2.490 16.30 5 1924
+ 0.066728 2 16 tcp 1540 ------- 0 18.294 16.783 5 1849
+ 0.06796 2 16 tcp 1540 ------- 0 18.294 16.783 6 1850
- 0.067981 2 16 ack 40 ------- 0 9.791 16.228 0 1516
- 0.068109 2 16 tcp 1540 ------- 0 18.294 16.783 4 1573
r 0.06944 2 16 tcp 1540 ------- 0 2.1085 16.483 6 1213
r 0.069568 2 16 ack 40 ------- 0 2.490 16.30 3 1648
+ 0.071027 2 16 ack 40 ------- 0 2.490 16.30 6 2078
+ 0.071155 2 16 tcp 1540 ------- 0 2.1085 16.483 7 2086
+ 0.071155 2 16 tcp 1540 ------- 0 2.1085 16.483 8 2087
+ 0.071283 2 16 tcp 1540 ------- 0 2.1085 16.483 9 2094
+ 0.071283 2 16 tcp 1540 ------- 0 2.1085 16.483 10 2095
d 0.071283 2 16 tcp 1540 ------- 0 2.1085 16.483 10 2095
+ 0.071411 2 16 tcp 1540 ------- 0 2.1085 16.483 11 2098
d 0.071411 2 16 tcp 1540 ------- 0 2.1085 16.483 11 2098
+ 0.071411 2 16 tcp 1540 ------- 0 2.1085 16.483 12 2099
d 0.071411 2 16 tcp 1540 ------- 0 2.1085 16.483 12 2099
- 0.073037 2 16 ack 40 ------- 0 2.490 16.30 4 1783
- 0.073165 2 16 tcp 40 ------- 0 18.293 16.782 0 1771
- 0.073293 2 16 ack 40 ------- 0 2.490 16.30 5 1924
- 0.073421 2 16 tcp 1540 ------- 0 18.294 16.783 5 1849
r 0.074496 2 16 tcp 1540 ------- 0 18.294 16.783 3 1572
r 0.074624 2 16 ack 40 ------- 0 9.791 16.228 0 1516
+ 0.076083 2 16 tcp 1540 ------- 0 2.1085 16.483 13 2251
+ 0.076083 2 16 tcp 1540 ------- 0 2.1085 16.483 14 2252
- 0.078349 2 16 tcp 1540 ------- 0 18.294 16.783 6 1850
r 0.079552 2 16 tcp 1540 ------- 0 18.294 16.783 4 1573
r 0.07968 2 16 ack 40 ------- 0 2.490 16.30 4 1783
r 0.079808 2 16 tcp 40 ------- 0 18.293 16.782 0 1771
r 0.079936 2 16 ack 40 ------- 0 2.490 16.30 5 1924
+ 0.081011 2 16 ack 40 ------- 0 2.490 16.30 7 2431
- 0.083277 2 16 ack 40 ------- 0 2.490 16.30 6 2078
- 0.083405 2 16 tcp 1540 ------- 0 2.1085 16.483 7 2086
r 0.084864 2 16 tcp 1540 ------- 0 18.294 16.783 5 1849
+ 0.085939 2 16 ack 40 ------- 0 2.490 16.30 8 2593
- 0.088333 2 16 tcp 1540 ------- 0 2.1085 16.483 8 2087
r 0.089792 2 16 tcp 1540 ------- 0 18.294 16.783 6 1850
r 0.08992 2 16 ack 40 ------- 0 2.490 16.30 6 2078
+ 0.091708 2 16 tcp 1540 ------- 0 18.294 16.783 7 2677
+ 0.09294 2 16 tcp 1540 ------- 0 18.294 16.783 8 2678
- 0.093261 2 16 tcp 1540 ------- 0 2.1085 16.483 9 2094
r 0.094848 2 16 tcp 1540 ------- 0 2.1085 16.483 7 2086
- 0.098189 2 16 tcp 1540 ------- 0 2.1085 16.483 13 2251
r 0.099776 2 16 tcp 1540 ------- 0 2.1085 16.483 8 2087
+ 0.101062 2 16 ack 40 ------- 0 2.490 16.30 9 3088
+ 0.101692 2 16 tcp 1540 ------- 0 18.294 16.783 9 2993
+ 0.102924 2 16 tcp 1540 ------- 0 18.294 16.783 10 2994
- 0.103117 2 16 tcp 1540 ------- 0 2.1085 16.483 14 2252
r 0.104704 2 16 tcp 1540 ------- 0 2.1085 16.483 9 2094
+ 0.10599 2 16 ack 40 ------- 0 2.490 16.30 10 3265
- 0.108045 2 16 ack 40 ------- 0 2.490 16.30 7 2431
- 0.108173 2 16 ack 40 ------- 0 2.490 16.30 8 2593
- 0.108301 2 16 tcp 1540 ------- 0 18.294 16.783 7 2677
r 0.109632 2 16 tcp 1540 ------- 0 2.1085 16.483 13 2251
+ 0.111046 2 16 ack 40 ------- 0 2.490 16.30 11 3413
+ 0.111676 2 16 tcp 1540 ------- 0 18.293 16.782 1 3327
+ 0.112908 2 16 tcp 1540 ------- 0 18.293 16.782 2 3328
- 0.113229 2 16 tcp 1540 ------- 0 18.294 16.783 8 2678
r 0.11456 2 16 tcp 1540 ------- 0 2.1085 16.483 14 2252
r 0.114688 2 16 ack 40 ------- 0 2.490 16.30 7 2431
r 0.114816 2 16 ack 40 ------- 0 2.490 16.30 8 2593
+ 0.115974 2 16 ack 40 ------- 0 2.490 16.30 12 3556
- 0.118157 2 16 ack 40 ------- 0 2.490 16.30 9 3088
- 0.118285 2 16 tcp 1540 ------- 0 18.294 16.783 9 2993
r 0.119744 2 16 tcp 1540 ------- 0 18.294 16.783 7 2677
+ 0.12137 2 16 ack 40 ------- 0 2.490 16.30 13 3714
+ 0.121871 2 16 tcp 1540 ------- 0 18.294 16.783 11 3616
+ 0.123103 2 16 tcp 1540 ------- 0 18.294 16.783 12 3617
- 0.123213 2 16 tcp 1540 ------- 0 18.294 16.783 10 2994
+ 0.124335 2 16 tcp 1540 ------- 0 18.294 16.783 13 3620
r 0.124672 2 16 tcp 1540 ------- 0 18.294 16.783 8 2678
r 0.1248 2 16 ack 40 ------- 0 2.490 16.30 9 3088
+ 0.125567 2 16 tcp 1540 ------- 0 18.294 16.783 14 3621
d 0.125567 2 16 tcp 1540 ------- 0 18.294 16.783 14 3621
+ 0.125612 2 16 tcp 40 ------- 0 12.955 16.626 0 2515
d 0.125612 2 16 tcp 40 ------- 0 12.955 16.626 0 2515
+ 0.126298 2 16 ack 40 ------- 0 2.490 16.30 14 3895
d 0.126298 2 16 ack 40 ------- 0 2.490 16.30 14 3895
+ 0.126534 2 16 tcp 40 ------- 0 22.457 16.876 0 3145
d 0.126534 2 16 tcp 40 ------- 0 22.457 16.876 0 3145
+ 0.126682 2 16 tcp 1540 ------- 0 2.1085 16.483 15 3910
d 0.126682 2 16 tcp 1540 ------- 0 2.1085 16.483 15 3910
+ 0.126682 2 16 tcp 1540 ------- 0 2.1085 16.483 16 3911
d 0.126682 2 16 tcp 1540 ------- 0 2.1085 16.483 16 3911
+ 0.12681 2 16 tcp 1540 ------- 0 2.1085 16.483 17 3916
d 0.12681 2 16 tcp 1540 ------- 0 2.1085 16.483 17 3916
+ 0.12681 2 16 tcp 1540 ------- 0 2.1085 16.483 18 3917
d 0.12681 2 16 tcp 1540 ------- 0 2.1085 16.483 18 3917
+ 0.126938 2 16 tcp 1540 ------- 0 2.1085 16.483 19 3923
d 0.126938 2 16 tcp 1540 ------- 0 2.1085 16.483 19 3923
+ 0.126938 2 16 tcp 1540 ------- 0 2.1085 16.483 20 3924
d 0.126938 2 16 tcp 1540 ------- 0 2.1085 16.483 20 3924
+ 0.127066 2 16 tcp 1540 ------- 0 2.1085 16.483 21 3928
d 0.127066 2 16 tcp 1540 ------- 0 2.1085 16.483 21 3928
+ 0.127194 2 16 tcp 1540 ------- 0 2.1085 16.483 22 3931
d 0.127194 2 16 tcp 1540 ------- 0 2.1085 16.483 22 3931
- 0.128141 2 16 ack 40 ------- 0 2.490 16.30 10 3265
- 0.128269 2 16 ack 40 ------- 0 2.490 16.30 11 3413
- 0.128397 2 16 tcp 1540 ------- 0 18.293 16.782 1 3327
+ 0.128667 2 16 tcp 40 ------- 0 22.483 16.902 0 3216
r 0.129728 2 16 tcp 1540 ------- 0 18.294 16.783 9 2993
+ 0.132122 2 16 ack 40 ------- 0 2.490 16.30 15 4075
- 0.133325 2 16 tcp 1540 ------- 0 18.293 16.782 2 3328
r 0.134656 2 16 tcp 1540 ------- 0 18.294 16.783 10 2994
r 0.134784 2 16 ack 40 ------- 0 2.490 16.30 10 3265
r 0.134912 2 16 ack 40 ------- 0 2.490 16.30 11 3413
+ 0.13705 2 16 ack 40 ------- 0 2.490 16.30 16 4227
- 0.138253 2 16 ack 40 ------- 0 2.490 16.30 12 3556
- 0.138381 2 16 ack 40 ------- 0 2.490 16.30 13 3714
- 0.138509 2 16 tcp 1540 ------- 0 18.294 16.783 11 3616
r 0.13984 2 16 tcp 1540 ------- 0 18.293 16.782 1 3327
+ 0.141978 2 16 ack 40 ------- 0 2.490 16.30 17 4380
- 0.143437 2 16 tcp 1540 ------- 0 18.294 16.783 12 3617
r 0.144768 2 16 tcp 1540 ------- 0 18.293 16.782 2 3328
r 0.144896 2 16 ack 40 ------- 0 2.490 16.30 12 3556
r 0.145024 2 16 ack 40 ------- 0 2.490 16.30 13 3714
+ 0.146812 2 16 tcp 40 ------- 0 10.880 16.602 0 3434
+ 0.146906 2 16 ack 40 ------- 0 2.490 16.30 18 4560
+ 0.148076 2 16 ack 40 ------- 0 9.791 16.228 1 3439
- 0.148365 2 16 tcp 1540 ------- 0 18.294 16.783 13 3620
r 0.149952 2 16 tcp 1540 ------- 0 18.294 16.783 11 3616
+ 0.151391 2 16 ack 40 ------- 0 18.838 16.1002 0 4643
+ 0.152218 2 16 ack 40 ------- 0 2.490 16.30 19 4742
+ 0.152719 2 16 tcp 1540 ------- 0 18.294 16.783 15 4648
d 0.152719 2 16 tcp 1540 ------- 0 18.294 16.783 15 4648
- 0.153293 2 16 tcp 40 ------- 0 22.483 16.902 0 3216
- 0.153421 2 16 ack 40 ------- 0 2.490 16.30 15 4075
- 0.153549 2 16 ack 40 ------- 0 2.490 16.30 16 4227
- 0.153677 2 16 ack 40 ------- 0 2.490 16.30 17 4380
- 0.153805 2 16 tcp 40 ------- 0 10.880 16.602 0 3434
- 0.153933 2 16 ack 40 ------- 0 2.490 16.30 18 4560
+ 0.153951 2 16 tcp 1540 ------- 0 18.294 16.783 16 4649
- 0.154061 2 16 ack 40 ------- 0 9.791 16.228 1 3439
- 0.154189 2 16 ack 40 ------- 0 18.838 16.1002 0 4643
- 0.154317 2 16 ack 40 ------- 0 2.490 16.30 19 4742
- 0.154445 2 16 tcp 1540 ------- 0 18.294 16.783 16 4649
r 0.15488 2 16 tcp 1540 ------- 0 18.294 16.783 12 3617
+ 0.155183 2 16 tcp 1540 ------- 0 18.294 16.783 17 4659
+ 0.156415 2 16 tcp 1540 ------- 0 18.294 16.783 18 4660
+ 0.157146 2 16 ack 40 ------- 0 2.490 16.30 20 4922
- 0.159373 2 16 tcp 1540 ------- 0 18.294 16.783 17 4659
r 0.159808 2 16 tcp 1540 ------- 0 18.294 16.783 13 3620
r 0.159936 2 16 tcp 40 ------- 0 22.483 16.902 0 3216
r 0.160064 2 16 ack 40 ------- 0 2.490 16.30 15 4075
r 0.160192 2 16 ack 40 ------- 0 2.490 16.30 16 4227
r 0.16032 2 16 ack 40 ------- 0 2.490 16.30 17 4380
r 0.160448 2 16 tcp 40 ------- 0 10.880 16.602 0 3434
r 0.160576 2 16 ack 40 ------- 0 2.490 16.30 18 4560
r 0.160704 2 16 ack 40 ------- 0 9.791 16.228 1 3439
r 0.160832 2 16 ack 40 ------- 0 18.838 16.1002 0 4643
r 0.16096 2 16 ack 40 ------- 0 2.490 16.30 19 4742
+ 0.162178 2 16 tcp 40 ------- 0 2.1081 16.479 0 5106
+ 0.16233 2 16 ack 40 ------- 0 2.490 16.30 21 5113
+ 0.162831 2 16 tcp 1540 ------- 0 18.294 16.783 19 4985
+ 0.164063 2 16 tcp 1540 ------- 0 18.294 16.783 20 4986
- 0.164301 2 16 tcp 1540 ------- 0 18.294 16.783 18 4660
+ 0.165295 2 16 tcp 1540 ------- 0 18.294 16.783 21 4991
r 0.165888 2 16 tcp 1540 ------- 0 18.294 16.783 16 4649
+ 0.166527 2 16 tcp 1540 ------- 0 18.294 16.783 22 4992
+ 0.167258 2 16 ack 40 ------- 0 2.490 16.30 22 5310
- 0.169229 2 16 ack 40 ------- 0 2.490 16.30 20 4922
+ 0.169276 2 16 ack 40 ------- 0 9.791 16.228 2 3905
- 0.169357 2 16 tcp 40 ------- 0 2.1081 16.479 0 5106
- 0.169485 2 16 ack 40 ------- 0 2.490 16.30 21 5113
- 0.169613 2 16 tcp 1540 ------- 0 18.294 16.783 19 4985
r 0.170816 2 16 tcp 1540 ------- 0 18.294 16.783 17 4659
+ 0.172186 2 16 ack 40 ------- 0 2.490 16.30 23 5554
- 0.174541 2 16 tcp 1540 ------- 0 18.294 16.783 20 4986
r 0.175744 2 16 tcp 1540 ------- 0 18.294 16.783 18 4660
r 0.175872 2 16 ack 40 ------- 0 2.490 16.30 20 4922
r 0.176 2 16 tcp 40 ------- 0 2.1081 16.479 0 5106
r 0.176128 2 16 ack 40 ------- 0 2.490 16.30 21 5113
+ 0.177114 2 16 ack 40 ------- 0 2.490 16.30 24 5725
- 0.179469 2 16 tcp 1540 ------- 0 18.294 16.783 21 4991
r 0.181056 2 16 tcp 1540 ------- 0 18.294 16.783 19 4985
+ 0.182298 2 16 ack 40 ------- 0 2.490 16.30 25 5887
+ 0.182799 2 16 tcp 1540 ------- 0 18.293 16.782 3 5788
+ 0.184031 2 16 tcp 1540 ------- 0 18.293 16.782 4 5789
- 0.184397 2 16 tcp 1540 ------- 0 18.294 16.783 22 4992
+ 0.185263 2 16 tcp 1540 ------- 0 18.293 16.782 5 5800
r 0.185984 2 16 tcp 1540 ------- 0 18.294 16.783 20 4986
+ 0.186495 2 16 tcp 1540 ------- 0 18.293 16.782 6 5801
+ 0.187226 2 16 ack 40 ------- 0 2.490 16.30 26 6043
d 0.187226 2 16 ack 40 ------- 0 2.490 16.30 26 6043
+ 0.187993 2 16 tcp 40 ------- 0 22.447 16.866 0 5183
d 0.187993 2 16 tcp 40 ------- 0 22.447 16.866 0 5183
+ 0.18918 2 16 ack 40 ------- 0 9.856 16.293 0 3929
d 0.18918 2 16 ack 40 ------- 0 9.856 16.293 0 3929
- 0.189325 2 16 ack 40 ------- 0 2.490 16.30 22 5310
- 0.189453 2 16 ack 40 ------- 0 9.791 16.228 2 3905
- 0.189581 2 16 ack 40 ------- 0 2.490 16.30 23 5554
- 0.189709 2 16 ack 40 ------- 0 2.490 16.30 24 5725
- 0.189837 2 16 ack 40 ------- 0 2.490 16.30 25 5887
- 0.189965 2 16 tcp 1540 ------- 0 18.293 16.782 3 5788
r 0.190912 2 16 tcp 1540 ------- 0 18.294 16.783 21 4991
+ 0.192154 2 16 ack 40 ------- 0 2.490 16.30 27 6214
- 0.194893 2 16 tcp 1540 ------- 0 18.293 16.782 4 5789
r 0.19584 2 16 tcp 1540 ------- 0 18.294 16.783 22 4992
r 0.195968 2 16 ack 40 ------- 0 2.490 16.30 22 5310
r 0.196096 2 16 ack 40 ------- 0 9.791 16.228 2 3905
r 0.196224 2 16 ack 40 ------- 0 2.490 16.30 23 5554
r 0.196352 2 16 ack 40 ------- 0 2.490 16.30 24 5725
r 0.19648 2 16 ack 40 ------- 0 2.490 16.30 25 5887
+ 0.197082 2 16 ack 40 ------- 0 2.490 16.30 28 6403
- 0.199821 2 16 tcp 1540 ------- 0 18.293 16.782 5 5800
r 0.201408 2 16 tcp 1540 ------- 0 18.293 16.782 3 5788
+ 0.20265 2 16 ack 40 ------- 0 2.490 16.30 29 6614
+ 0.202767 2 16 tcp 1540 ------- 0 18.294 16.783 23 6488
+ 0.203999 2 16 tcp 1540 ------- 0 18.294 16.783 24 6489
- 0.204749 2 16 tcp 1540 ------- 0 18.293 16.782 6 5801
+ 0.205231 2 16 tcp 1540 ------- 0 18.294 16.783 25 6495
r 0.206336 2 16 tcp 1540 ------- 0 18.293 16.782 4 5789
+ 0.206463 2 16 tcp 1540 ------- 0 18.294 16.783 26 6496
+ 0.207578 2 16 ack 40 ------- 0 2.490 16.30 30 6783
+ 0.207695 2 16 tcp 1540 ------- 0 18.294 16.783 27 6503
+ 0.208927 2 16 tcp 1540 ------- 0 18.294 16.783 28 6504
d 0.208927 2 16 tcp 1540 ------- 0 18.294 16.783 28 6504
- 0.209677 2 16 ack 40 ------- 0 2.490 16.30 27 6214
- 0.209805 2 16 ack 40 ------- 0 2.490 16.30 28 6403
- 0.209933 2 16 ack 40 ------- 0 2.490 16.30 29 6614
- 0.210061 2 16 tcp 1540 ------- 0 18.294 16.783 23 6488
r 0.211264 2 16 tcp 1540 ------- 0 18.293 16.782 5 5800
+ 0.212506 2 16 ack 40 ------- 0 2.490 16.30 31 6941
- 0.214989 2 16 tcp 1540 ------- 0 18.294 16.783 24 6489
r 0.216192 2 16 tcp 1540 ------- 0 18.293 16.782 6 5801
r 0.21632 2 16 ack 40 ------- 0 2.490 16.30 27 6214
r 0.216448 2 16 ack 40 ------- 0 2.490 16.30 28 6403
r 0.216576 2 16 ack 40 ------- 0 2.490 16.30 29 6614
+ 0.217434 2 16 ack 40 ------- 0 2.490 16.30 32 7130
- 0.219917 2 16 tcp 1540 ------- 0 18.294 16.783 25 6495
r 0.221504 2 16 tcp 1540 ------- 0 18.294 16.783 23 6488
+ 0.222362 2 16 ack 40 ------- 0 2.490 16.30 33 7300
- 0.224845 2 16 tcp 1540 ------- 0 18.294 16.783 26 6496
r 0.226432 2 16 tcp 1540 ------- 0 18.294 16.783 24 6489
+ 0.226993 2 16 ack 40 ------- 0 10.566 16.314 0 6521
+ 0.22729 2 16 ack 40 ------- 0 2.490 16.30 34 7484
- 0.229773 2 16 ack 40 ------- 0 2.490 16.30 30 6783
- 0.229901 2 16 tcp 1540 ------- 0 18.294 16.783 27 6503
r 0.23136 2 16 tcp 1540 ------- 0 18.294 16.783 25 6495
+ 0.232218 2 16 ack 40 ------- 0 2.490 16.30 35 7674
- 0.234829 2 16 ack 40 ------- 0 2.490 16.30 31 6941
- 0.234957 2 16 ack 40 ------- 0 2.490 16.30 32 7130
- 0.235085 2 16 ack 40 ------- 0 2.490 16.30 33 7300
- 0.235213 2 16 ack 40 ------- 0 10.566 16.314 0 6521
- 0.235341 2 16 ack 40 ------- 0 2.490 16.30 34 7484
- 0.235469 2 16 ack 40 ------- 0 2.490 16.30 35 7674
r 0.236288 2 16 tcp 1540 ------- 0 18.294 16.783 26 6496
r 0.236416 2 16 ack 40 ------- 0 2.490 16.30 30 6783
+ 0.237274 2 16 ack 40 ------- 0 2.490 16.30 36 7843
- 0.237274 2 16 ack 40 ------- 0 2.490 16.30 36 7843
+ 0.237361 2 16 tcp 40 ------- 0 10.878 16.600 0 6998
- 0.237402 2 16 tcp 40 ------- 0 10.878 16.600 0 6998
r 0.241344 2 16 tcp 1540 ------- 0 18.294 16.783 27 6503
r 0.241472 2 16 ack 40 ------- 0 2.490 16.30 31 6941
r 0.2416 2 16 ack 40 ------- 0 2.490 16.30 32 7130
r 0.241728 2 16 ack 40 ------- 0 2.490 16.30 33 7300
r 0.241856 2 16 ack 40 ------- 0 10.566 16.314 0 6521
r 0.241984 2 16 ack 40 ------- 0 2.490 16.30 34 7484
r 0.242112 2 16 ack 40 ------- 0 2.490 16.30 35 7674
+ 0.242202 2 16 ack 40 ------- 0 2.490 16.30 37 8019
- 0.242202 2 16 ack 40 ------- 0 2.490 16.30 37 8019
r 0.243917 2 16 ack 40 ------- 0 2.490 16.30 36 7843
r 0.244045 2 16 tcp 40 ------- 0 10.878 16.600 0 6998
+ 0.247241 2 16 tcp 40 ------- 0 18.297 16.786 0 7681
- 0.247241 2 16 tcp 40 ------- 0 18.297 16.786 0 7681
r 0.248845 2 16 ack 40 ------- 0 2.490 16.30 37 8019
+ 0.253441 2 16 tcp 1540 ------- 0 10.880 16.602 1 7790
- 0.253441 2 16 tcp 1540 ------- 0 10.880 16.602 1 7790
r 0.253885 2 16 tcp 40 ------- 0 18.297 16.786 0 7681
+ 0.254673 2 16 tcp 1540 ------- 0 10.880 16.602 2 7791
- 0.258369 2 16 tcp 1540 ------- 0 10.880 16.602 2 7791
r 0.264885 2 16 tcp 1540 ------- 0 10.880 16.602 1 7790
+ 0.266842 2 16 ack 40 ------- 0 2.490 16.30 38 8887
- 0.266842 2 16 ack 40 ------- 0 2.490 16.30 38 8887
+ 0.268705 2 16 tcp 40 ------- 0 13.1152 16.633 0 4854
- 0.268705 2 16 tcp 40 ------- 0 13.1152 16.633 0 4854
r 0.269813 2 16 tcp 1540 ------- 0 10.880 16.602 2 7791
+ 0.27177 2 16 ack 40 ------- 0 2.490 16.30 39 9120
- 0.27177 2 16 ack 40 ------- 0 2.490 16.30 39 9120
r 0.273485 2 16 ack 40 ------- 0 2.490 16.30 38 8887
r 0.275349 2 16 tcp 40 ------- 0 13.1152 16.633 0 4854
+ 0.27721 2 16 ack 40 ------- 0 2.490 16.30 40 9361
- 0.27721 2 16 ack 40 ------- 0 2.490 16.30 40 9361
+ 0.277338 2 16 tcp 1540 ------- 0 2.1081 16.479 1 9363
+ 0.277338 2 16 tcp 1540 ------- 0 2.1081 16.479 2 9364
- 0.277338 2 16 tcp 1540 ------- 0 2.1081 16.479 1 9363
r 0.278413 2 16 ack 40 ------- 0 2.490 16.30 39 9120
+ 0.282266 2 16 ack 40 ------- 0 2.490 16.30 41 9571
- 0.282266 2 16 tcp 1540 ------- 0 2.1081 16.479 2 9364
+ 0.283129 2 16 ack 40 ------- 0 18.838 16.1002 1 8649
r 0.283853 2 16 ack 40 ------- 0 2.490 16.30 40 9361
+ 0.285689 2 16 ack 40 ------- 0 18.838 16.1002 2 8833
- 0.287194 2 16 ack 40 ------- 0 2.490 16.30 41 9571
- 0.287322 2 16 ack 40 ------- 0 18.838 16.1002 1 8649
- 0.28745 2 16 ack 40 ------- 0 18.838 16.1002 2 8833
+ 0.287834 2 16 ack 40 ------- 0 2.490 16.30 42 9793
- 0.287834 2 16 ack 40 ------- 0 2.490 16.30 42 9793
r 0.288781 2 16 tcp 1540 ------- 0 2.1081 16.479 1 9363
r 0.293709 2 16 tcp 1540 ------- 0 2.1081 16.479 2 9364
r 0.293837 2 16 ack 40 ------- 0 2.490 16.30 41 9571
r 0.293965 2 16 ack 40 ------- 0 18.838 16.1002 1 8649
r 0.294093 2 16 ack 40 ------- 0 18.838 16.1002 2 8833
r 0.294477 2 16 ack 40 ------- 0 2.490 16.30 42 9793
+ 0.299241 2 16 tcp 1540 ------- 0 18.294 16.783 29 9225
- 0.299241 2 16 tcp 1540 ------- 0 18.294 16.783 29 9225
+ 0.301705 2 16 tcp 1540 ------- 0 18.294 16.783 30 9231
+ 0.302618 2 16 ack 40 ------- 0 2.490 16.30 43 10399
+ 0.302937 2 16 tcp 1540 ---A--- 0 18.294 16.783 14 9242
- 0.304169 2 16 tcp 1540 ------- 0 18.294 16.783 30 9231
+ 0.307546 2 16 ack 40 ------- 0 2.490 16.30 44 10596
- 0.309097 2 16 ack 40 ------- 0 2.490 16.30 43 10399
- 0.309225 2 16 tcp 1540 ---A--- 0 18.294 16.783 14 9242
+ 0.309313 2 16 ack 40 ------- 0 9.791 16.228 3 9677
r 0.310685 2 16 tcp 1540 ------- 0 18.294 16.783 29 9225
+ 0.312474 2 16 ack 40 ------- 0 2.490 16.30 45 10798
- 0.314153 2 16 ack 40 ------- 0 2.490 16.30 44 10596
- 0.314281 2 16 ack 40 ------- 0 9.791 16.228 3 9677
- 0.314409 2 16 ack 40 ------- 0 2.490 16.30 45 10798
r 0.315613 2 16 tcp 1540 ------- 0 18.294 16.783 30 9231
r 0.315741 2 16 ack 40 ------- 0 2.490 16.30 43 10399
+ 0.318042 2 16 ack 40 ------- 0 2.490 16.30 46 11007
- 0.318042 2 16 ack 40 ------- 0 2.490 16.30 46 11007
r 0.320669 2 16 tcp 1540 ---A--- 0 18.294 16.783 14 9242
r 0.320797 2 16 ack 40 ------- 0 2.490 16.30 44 10596
r 0.320925 2 16 ack 40 ------- 0 9.791 16.228 3 9677
r 0.321053 2 16 ack 40 ------- 0 2.490 16.30 45 10798
+ 0.32297 2 16 ack 40 ------- 0 2.490 16.30 47 11231
- 0.32297 2 16 ack 40 ------- 0 2.490 16.30 47 11231
+ 0.324449 2 16 ack 40 ------- 0 9.791 16.228 4 10472
- 0.324449 2 16 ack 40 ------- 0 9.791 16.228 4 10472
r 0.324685 2 16 ack 40 ------- 0 2.490 16.30 46 11007
+ 0.326938 2 16 tcp 1540 ---A--- 0 2.1085 16.483 10 11384
- 0.326938 2 16 tcp 1540 ---A--- 0 2.1085 16.483 10 11384
+ 0.327898 2 16 ack 40 ------- 0 2.490 16.30 48 11420
r 0.329613 2 16 ack 40 ------- 0 2.490 16.30 47 11231
r 0.331093 2 16 ack 40 ------- 0 9.791 16.228 4 10472
- 0.331866 2 16 ack 40 ------- 0 2.490 16.30 48 11420
+ 0.332826 2 16 ack 40 ------- 0 2.490 16.30 49 11621
- 0.332826 2 16 ack 40 ------- 0 2.490 16.30 49 11621
+ 0.333361 2 16 tcp 40 ------- 0 10.870 16.592 0 11012
- 0.333361 2 16 tcp 40 ------- 0 10.870 16.592 0 11012
r 0.338381 2 16 tcp 1540 ---A--- 0 2.1085 16.483 10 11384
r 0.338509 2 16 ack 40 ------- 0 2.490 16.30 48 11420
+ 0.33865 2 16 ack 40 ------- 0 2.490 16.30 50 11854
- 0.33865 2 16 ack 40 ------- 0 2.490 16.30 50 11854
r 0.339469 2 16 ack 40 ------- 0 2.490 16.30 49 11621
r 0.340005 2 16 tcp 40 ------- 0 10.870 16.592 0 11012
+ 0.340377 2 16 tcp 1540 ------- 0 18.293 16.782 7 10896
- 0.340377 2 16 tcp 1540 ------- 0 18.293 16.782 7 10896
+ 0.341609 2 16 tcp 1540 ------- 0 18.293 16.782 8 10897
+ 0.342841 2 16 tcp 1540 ------- 0 18.293 16.782 9 10898
+ 0.343834 2 16 ack 40 ------- 0 2.490 16.30 51 12096
+ 0.344073 2 16 tcp 1540 ------- 0 18.293 16.782 10 10899
r 0.345293 2 16 ack 40 ------- 0 2.490 16.30 50 11854
- 0.345305 2 16 tcp 1540 ------- 0 18.293 16.782 8 10897
+ 0.345305 2 16 tcp 1540 ------- 0 18.293 16.782 11 10900
+ 0.346537 2 16 tcp 1540 ------- 0 18.293 16.782 12 10901
+ 0.348762 2 16 ack 40 ------- 0 2.490 16.30 52 12273
- 0.350233 2 16 tcp 1540 ------- 0 18.293 16.782 9 10898
+ 0.351465 2 16 tcp 1540 ------- 0 18.293 16.782 13 10906
r 0.351821 2 16 tcp 1540 ------- 0 18.293 16.782 7 10896
+ 0.352697 2 16 tcp 1540 ------- 0 18.293 16.782 14 10907
+ 0.35369 2 16 ack 40 ------- 0 2.490 16.30 53 12470
- 0.355161 2 16 ack 40 ------- 0 2.490 16.30 51 12096
- 0.355289 2 16 tcp 1540 ------- 0 18.293 16.782 10 10899
r 0.356749 2 16 tcp 1540 ------- 0 18.293 16.782 8 10897
+ 0.357657 2 16 tcp 40 ------- 0 18.292 16.781 0 11035
- 0.360217 2 16 tcp 1540 ------- 0 18.293 16.782 11 10900
r 0.361677 2 16 tcp 1540 ------- 0 18.293 16.782 9 10898
r 0.361805 2 16 ack 40 ------- 0 2.490 16.30 51 12096
- 0.365145 2 16 tcp 1540 ------- 0 18.293 16.782 12 10901
+ 0.365553 2 16 ack 40 ------- 0 10.574 16.322 0 11777
r 0.366733 2 16 tcp 1540 ------- 0 18.293 16.782 10 10899
+ 0.368474 2 16 ack 40 ------- 0 2.490 16.30 54 13021
- 0.370073 2 16 ack 40 ------- 0 2.490 16.30 52 12273
- 0.370201 2 16 tcp 1540 ------- 0 18.293 16.782 13 10906
r 0.371661 2 16 tcp 1540 ------- 0 18.293 16.782 11 10900
+ 0.373402 2 16 ack 40 ------- 0 2.490 16.30 55 13226
- 0.375129 2 16 tcp 1540 ------- 0 18.293 16.782 14 10907
r 0.376589 2 16 tcp 1540 ------- 0 18.293 16.782 12 10901
r 0.376717 2 16 ack 40 ------- 0 2.490 16.30 52 12273
+ 0.37833 2 16 ack 40 ------- 0 2.490 16.30 56 13430
- 0.380057 2 16 ack 40 ------- 0 2.490 16.30 53 12470
- 0.380185 2 16 tcp 40 ------- 0 18.292 16.781 0 11035
- 0.380313 2 16 ack 40 ------- 0 10.574 16.322 0 11777
- 0.380441 2 16 ack 40 ------- 0 2.490 16.30 54 13021
- 0.380569 2 16 ack 40 ------- 0 2.490 16.30 55 13226
- 0.380697 2 16 ack 40 ------- 0 2.490 16.30 56 13430
r 0.381645 2 16 tcp 1540 ------- 0 18.293 16.782 13 10906
+ 0.383258 2 16 ack 40 ------- 0 2.490 16.30 57 13618
- 0.383258 2 16 ack 40 ------- 0 2.490 16.30 57 13618
r 0.386573 2 16 tcp 1540 ------- 0 18.293 16.782 14 10907
r 0.386701 2 16 ack 40 ------- 0 2.490 16.30 53 12470
r 0.386829 2 16 tcp 40 ------- 0 18.292 16.781 0 11035
r 0.386957 2 16 ack 40 ------- 0 10.574 16.322 0 11777
r 0.387085 2 16 ack 40 ------- 0 2.490 16.30 54 13021
r 0.387213 2 16 ack 40 ------- 0 2.490 16.30 55 13226
r 0.387341 2 16 ack 40 ------- 0 2.490 16.30 56 13430
+ 0.388698 2 16 ack 40 ------- 0 2.490 16.30 58 13861
- 0.388698 2 16 ack 40 ------- 0 2.490 16.30 58 13861
r 0.389901 2 16 ack 40 ------- 0 2.490 16.30 57 13618
+ 0.390273 2 16 ack 40 ------- 0 10.566 16.314 0 13183
- 0.390273 2 16 ack 40 ------- 0 10.566 16.314 0 13183
+ 0.393882 2 16 ack 40 ------- 0 2.490 16.30 59 14104
- 0.393882 2 16 ack 40 ------- 0 2.490 16.30 59 14104
r 0.395341 2 16 ack 40 ------- 0 2.490 16.30 58 13861
r 0.396917 2 16 ack 40 ------- 0 10.566 16.314 0 13183
+ 0.398938 2 16 ack 40 ------- 0 2.490 16.30 60 14291
- 0.398938 2 16 ack 40 ------- 0 2.490 16.30 60 14291
+ 0.399066 2 16 tcp 1540 ------- 0 2.1081 16.479 3 14292
+ 0.399066 2 16 tcp 1540 ------- 0 2.1081 16.479 4 14293
- 0.399066 2 16 tcp 1540 ------- 0 2.1081 16.479 3 14292
+ 0.399322 2 16 tcp 1540 ------- 0 2.1081 16.479 5 14304
+ 0.399322 2 16 tcp 1540 ------- 0 2.1081 16.479 6 14305
r 0.400525 2 16 ack 40 ------- 0 2.490 16.30 59 14104
- 0.403994 2 16 tcp 1540 ------- 0 2.1081 16.479 4 14293
+ 0.40425 2 16 ack 40 ------- 0 2.490 16.30 61 14514
r 0.405581 2 16 ack 40 ------- 0 2.490 16.30 60 14291
- 0.408922 2 16 tcp 1540 ------- 0 2.1081 16.479 5 14304
r 0.410509 2 16 tcp 1540 ------- 0 2.1081 16.479 3 14292
- 0.41385 2 16 tcp 1540 ------- 0 2.1081 16.479 6 14305
r 0.415437 2 16 tcp 1540 ------- 0 2.1081 16.479 4 14293
+ 0.418633 2 16 tcp 1540 ------- 0 18.297 16.786 1 13720
- 0.418778 2 16 ack 40 ------- 0 2.490 16.30 61 14514
- 0.418906 2 16 tcp 1540 ------- 0 18.297 16.786 1 13720
+ 0.419089 2 16 ack 40 ------- 0 10.578 16.326 0 13733
+ 0.419865 2 16 tcp 1540 ------- 0 18.297 16.786 2 13721
+ 0.420321 2 16 tcp 1540 ------- 0 10.880 16.602 3 13740
r 0.420365 2 16 tcp 1540 ------- 0 2.1081 16.479 5 14304
- 0.423834 2 16 ack 40 ------- 0 10.578 16.326 0 13733
- 0.423962 2 16 tcp 1540 ------- 0 18.297 16.786 2 13721
r 0.425293 2 16 tcp 1540 ------- 0 2.1081 16.479 6 14305
r 0.425421 2 16 ack 40 ------- 0 2.490 16.30 61 14514
+ 0.427841 2 16 ack 40 ------- 0 10.572 16.320 0 14141
+ 0.42889 2 16 ack 40 ------- 0 2.490 16.30 62 15468
- 0.42889 2 16 tcp 1540 ------- 0 10.880 16.602 3 13740
+ 0.429233 2 16 ack 40 ------- 0 9.791 16.228 5 14164
r 0.430349 2 16 tcp 1540 ------- 0 18.297 16.786 1 13720
r 0.430477 2 16 ack 40 ------- 0 10.578 16.326 0 13733
- 0.433818 2 16 ack 40 ------- 0 10.572 16.320 0 14141
- 0.433946 2 16 ack 40 ------- 0 2.490 16.30 62 15468
- 0.434074 2 16 ack 40 ------- 0 9.791 16.228 5 14164
+ 0.434202 2 16 ack 40 ------- 0 2.490 16.30 63 15684
- 0.434202 2 16 ack 40 ------- 0 2.490 16.30 63 15684
r 0.435405 2 16 tcp 1540 ------- 0 18.297 16.786 2 13721
+ 0.437401 2 16 ack 40 ------- 0 18.806 16.970 0 14451
- 0.437401 2 16 ack 40 ------- 0 18.806 16.970 0 14451
+ 0.438273 2 16 ack 40 ------- 0 9.791 16.228 6 14776
- 0.438273 2 16 ack 40 ------- 0 9.791 16.228 6 14776
+ 0.439386 2 16 ack 40 ------- 0 2.490 16.30 64 15864
- 0.439386 2 16 ack 40 ------- 0 2.490 16.30 64 15864
r 0.440333 2 16 tcp 1540 ------- 0 10.880 16.602 3 13740
r 0.440461 2 16 ack 40 ------- 0 10.572 16.320 0 14141
r 0.440589 2 16 ack 40 ------- 0 2.490 16.30 62 15468
r 0.440717 2 16 ack 40 ------- 0 9.791 16.228 5 14164
r 0.440845 2 16 ack 40 ------- 0 2.490 16.30 63 15684
r 0.444045 2 16 ack 40 ------- 0 18.806 16.970 0 14451
r 0.444917 2 16 ack 40 ------- 0 9.791 16.228 6 14776
r 0.446029 2 16 ack 40 ------- 0 2.490 16.30 64 15864
+ 0.451177 2 16 ack 40 ------- 0 18.838 16.1002 3 14835
- 0.451177 2 16 ack 40 ------- 0 18.838 16.1002 3 14835
+ 0.453865 2 16 ack 40 ------- 0 18.838 16.1002 4 15082
- 0.453865 2 16 ack 40 ------- 0 18.838 16.1002 4 15082
+ 0.454025 2 16 ack 40 ------- 0 18.838 16.1002 5 15324