+ 0.00293 18 22 rtProtoDV 26 ------- 0 18.1037 22.1166 -1 36
- 0.00293 18 22 rtProtoDV 26 ------- 0 18.1037 22.1166 -1 36
+ 0.005223 18 22 rtProtoDV 26 ------- 0 18.1037 22.1166 -1 94
- 0.005223 18 22 rtProtoDV 26 ------- 0 18.1037 22.1166 -1 94
+ 0.007088 18 22 rtProtoDV 26 ------- 0 18.1037 22.1166 -1 153
- 0.007088 18 22 rtProtoDV 26 ------- 0 18.1037 22.1166 -1 153
+ 0.00788 18 22 rtProtoDV 26 ------- 0 18.1037 22.1166 -1 197
- 0.008475 18 22 rtProtoDV 26 ------- 0 18.1037 22.1166 -1 197
+ 0.010194 18 22 rtProtoDV 26 ------- 0 18.1037 22.1166 -1 300
- 0.010194 18 22 rtProtoDV 26 ------- 0 18.1037 22.1166 -1 300
+ 0.01092 18 22 rtProtoDV 26 ------- 0 18.1037 22.1166 -1 361
- 0.011581 18 22 rtProtoDV 26 ------- 0 18.1037 22.1166 -1 361
+ 0.013826 18 22 rtProtoDV 26 ------- 0 18.1037 22.1166 -1 511
- 0.013826 18 22 rtProtoDV 26 ------- 0 18.1037 22.1166 -1 511
+ 0.015954 18 22 rtProtoDV 26 ------- 0 18.1037 22.1166 -1 590
- 0.015954 18 22 rtProtoDV 26 ------- 0 18.1037 22.1166 -1 590
+ 0.016341 18 22 rtProtoDV 26 ------- 0 18.1037 22.1166 -1 606
- 0.01734 18 22 rtProtoDV 26 ------- 0 18.1037 22.1166 -1 606
+ 0.017567 18 22 rtProtoDV 26 ------- 0 18.1037 22.1166 -1 661
- 0.018727 18 22 rtProtoDV 26 ------- 0 18.1037 22.1166 -1 661
r 0.024044 18 22 rtProtoDV 26 ------- 0 18.1037 22.1166 -1 36
r 0.026337 18 22 rtProtoDV 26 ------- 0 18.1037 22.1166 -1 94
r 0.028202 18 22 rtProtoDV 26 ------- 0 18.1037 22.1166 -1 153
r 0.029589 18 22 rtProtoDV 26 ------- 0 18.1037 22.1166 -1 197
r 0.031309 18 22 rtProtoDV 26 ------- 0 18.1037 22.1166 -1 300
r 0.032695 18 22 rtProtoDV 26 ------- 0 18.1037 22.1166 -1 361
r 0.03494 18 22 rtProtoDV 26 ------- 0 18.1037 22.1166 -1 511
r 0.037068 18 22 rtProtoDV 26 ------- 0 18.1037 22.1166 -1 590
r 0.038455 18 22 rtProtoDV 26 ------- 0 18.1037 22.1166 -1 606
r 0.039842 18 22 rtProtoDV 26 ------- 0 18.1037 22.1166 -1 661
+ 0.042576 18 22 rtProtoDV 26 ------- 0 18.1037 22.1166 -1 1297
- 0.042576 18 22 rtProtoDV 26 ------- 0 18.1037 22.1166 -1 1297
r 0.063691 18 22 rtProtoDV 26 ------- 0 18.1037 22.1166 -1 1297
+ 0.087403 18 22 rtProtoDV 26 ------- 0 18.1037 22.1166 -1 2641
- 0.087403 18 22 rtProtoDV 26 ------- 0 18.1037 22.1166 -1 2641
r 0.108517 18 22 rtProtoDV 26 ------- 0 18.1037 22.1166 -1 2641
+ 0.120063 18 22 tcp 40 ------- 0 18.999 20.1190 0 3672
- 0.120063 18 22 tcp 40 ------- 0 18.999 20.1190 0 3672
+ 0.140137 18 22 ack 40 ------- 0 0.539 22.30 0 3342
- 0.140137 18 22 ack 40 ------- 0 0.539 22.30 0 3342
r 0.141924 18 22 tcp 40 ------- 0 18.999 20.1190 0 3672
+ 0.155433 18 22 ack 40 ------- 0 17.1254 22.532 0 4204
- 0.155433 18 22 ack 40 ------- 0 17.1254 22.532 0 4204
+ 0.156479 18 22 ack 40 ------- 0 11.931 22.308 0 2602
+ 0.156956 18 22 tcp 40 ------- 0 2.1214 22.684 0 4839
- 0.157567 18 22 ack 40 ------- 0 11.931 22.308 0 2602
+ 0.158846 18 22 tcp 40 ------- 0 18.1009 20.1200 0 4965
- 0.1597 18 22 tcp 40 ------- 0 2.1214 22.684 0 4839
- 0.161833 18 22 tcp 40 ------- 0 18.1009 20.1200 0 4965
r 0.161999 18 22 ack 40 ------- 0 0.539 22.30 0 3342
+ 0.169289 18 22 ack 40 ------- 0 2.685 22.76 0 5303
- 0.169289 18 22 ack 40 ------- 0 2.685 22.76 0 5303
r 0.177295 18 22 ack 40 ------- 0 17.1254 22.532 0 4204
r 0.179428 18 22 ack 40 ------- 0 11.931 22.308 0 2602
r 0.181561 18 22 tcp 40 ------- 0 2.1214 22.684 0 4839
r 0.183695 18 22 tcp 40 ------- 0 18.1009 20.1200 0 4965
r 0.19115 18 22 ack 40 ------- 0 2.685 22.76 0 5303
+ 0.19758 18 22 tcp 40 ------- 0 18.106 5.875 0 6416
- 0.19758 18 22 tcp 40 ------- 0 18.106 5.875 0 6416
+ 0.1999 18 22 ack 40 ------- 0 16.902 22.483 0 5003
- 0.1999 18 22 ack 40 ------- 0 16.902 22.483 0 5003
r 0.219441 18 22 tcp 40 ------- 0 18.106 5.875 0 6416
r 0.221761 18 22 ack 40 ------- 0 16.902 22.483 0 5003
+ 0.234196 18 22 ack 40 ------- 0 11.973 22.350 0 5499
- 0.234196 18 22 ack 40 ------- 0 11.973 22.350 0 5499
r 0.256057 18 22 ack 40 ------- 0 11.973 22.350 0 5499
+ 0.272368 18 22 tcp 40 ------- 0 0.1392 22.665 0 8791
- 0.272368 18 22 tcp 40 ------- 0 0.1392 22.665 0 8791
+ 0.280303 18 22 tcp 40 ------- 0 17.1392 22.973 0 9466
- 0.280303 18 22 tcp 40 ------- 0 17.1392 22.973 0 9466
r 0.294229 18 22 tcp 40 ------- 0 0.1392 22.665 0 8791
r 0.302164 18 22 tcp 40 ------- 0 17.1392 22.973 0 9466
+ 0.344222 18 22 tcp 40 ------- 0 18.97 5.866 0 12106
- 0.344222 18 22 tcp 40 ------- 0 18.97 5.866 0 12106
+ 0.358143 18 22 tcp 40 ------- 0 1.1905 22.667 0 10715
- 0.358143 18 22 tcp 40 ------- 0 1.1905 22.667 0 10715
+ 0.360942 18 22 tcp 40 ------- 0 17.1389 22.970 0 12685
- 0.360942 18 22 tcp 40 ------- 0 17.1389 22.970 0 12685
r 0.366083 18 22 tcp 40 ------- 0 18.97 5.866 0 12106
r 0.380005 18 22 tcp 40 ------- 0 1.1905 22.667 0 10715
r 0.382803 18 22 tcp 40 ------- 0 17.1389 22.970 0 12685
+ 0.38562 18 22 tcp 40 ------- 0 9.1307 22.855 0 12316
- 0.38562 18 22 tcp 40 ------- 0 9.1307 22.855 0 12316
r 0.407481 18 22 tcp 40 ------- 0 9.1307 22.855 0 12316
+ 0.41282 18 22 ack 40 ------- 0 17.1254 22.532 1 14010
- 0.41282 18 22 ack 40 ------- 0 17.1254 22.532 1 14010
+ 0.413204 18 22 tcp 40 ------- 0 1.1915 22.677 0 13272
+ 0.41346 18 22 tcp 40 ------- 0 1.1908 22.670 0 13442
- 0.414954 18 22 tcp 40 ------- 0 1.1915 22.677 0 13272
- 0.417087 18 22 tcp 40 ------- 0 1.1908 22.670 0 13442
+ 0.43138 18 22 tcp 40 ------- 0 9.1305 22.853 0 14005
- 0.43138 18 22 tcp 40 ------- 0 9.1305 22.853 0 14005
+ 0.434036 18 22 tcp 40 ------- 0 9.1317 22.865 0 14472
- 0.434036 18 22 tcp 40 ------- 0 9.1317 22.865 0 14472
r 0.434681 18 22 ack 40 ------- 0 17.1254 22.532 1 14010
r 0.436815 18 22 tcp 40 ------- 0 1.1915 22.677 0 13272
r 0.438948 18 22 tcp 40 ------- 0 1.1908 22.670 0 13442
+ 0.440335 18 22 tcp 40 ------- 0 18.99 5.868 0 15914
- 0.440335 18 22 tcp 40 ------- 0 18.99 5.868 0 15914
r 0.453241 18 22 tcp 40 ------- 0 9.1305 22.853 0 14005
r 0.455897 18 22 tcp 40 ------- 0 9.1317 22.865 0 14472
+ 0.458239 18 22 tcp 40 ------- 0 17.1387 22.968 0 16389
- 0.458239 18 22 tcp 40 ------- 0 17.1387 22.968 0 16389
r 0.462196 18 22 tcp 40 ------- 0 18.99 5.868 0 15914
r 0.4801 18 22 tcp 40 ------- 0 17.1387 22.968 0 16389
+ 0.493252 18 22 tcp 40 ------- 0 9.1324 22.872 0 15590
- 0.493252 18 22 tcp 40 ------- 0 9.1324 22.872 0 15590
+ 0.496215 18 22 ack 40 ------- 0 17.1254 22.532 2 18029
- 0.496215 18 22 ack 40 ------- 0 17.1254 22.532 2 18029
+ 0.502068 18 22 tcp 40 ------- 0 9.1304 22.852 0 16557
- 0.502068 18 22 tcp 40 ------- 0 9.1304 22.852 0 16557
r 0.515113 18 22 tcp 40 ------- 0 9.1324 22.872 0 15590
r 0.518076 18 22 ack 40 ------- 0 17.1254 22.532 2 18029
r 0.523929 18 22 tcp 40 ------- 0 9.1304 22.852 0 16557
+ 0.541576 18 22 tcp 40 ------- 0 18.103 5.872 0 19928
- 0.541576 18 22 tcp 40 ------- 0 18.103 5.872 0 19928
+ 0.55718 18 22 tcp 1540 ------- 0 2.1214 22.684 1 20257
- 0.55718 18 22 tcp 1540 ------- 0 2.1214 22.684 1 20257
+ 0.558412 18 22 tcp 1540 ------- 0 2.1214 22.684 2 20258
r 0.563438 18 22 tcp 40 ------- 0 18.103 5.872 0 19928
+ 0.596615 18 22 tcp 40 ------- 0 18.1012 20.1203 0 22289
+ 0.631889 18 22 tcp 40 ------- 0 18.110 5.879 0 23716
+ 0.635698 18 22 tcp 40 ------- 0 9.1320 22.868 0 22505
- 0.639313 18 22 tcp 1540 ------- 0 2.1214 22.684 2 20258
+ 0.647874 18 22 ack 40 ------- 0 2.685 22.76 1 24288
r 0.659041 18 22 tcp 1540 ------- 0 2.1214 22.684 1 20257
+ 0.670077 18 22 ack 40 ------- 0 11.931 22.308 2 21115
- 0.721447 18 22 tcp 40 ------- 0 18.1012 20.1203 0 22289
- 0.72358 18 22 tcp 40 ------- 0 18.110 5.879 0 23716
- 0.725713 18 22 tcp 40 ------- 0 9.1320 22.868 0 22505
- 0.727847 18 22 ack 40 ------- 0 2.685 22.76 1 24288
+ 0.728092 18 22 ack 40 ------- 0 2.685 22.76 2 27721
- 0.72998 18 22 ack 40 ------- 0 11.931 22.308 2 21115
- 0.732113 18 22 ack 40 ------- 0 2.685 22.76 2 27721
r 0.741175 18 22 tcp 1540 ------- 0 2.1214 22.684 2 20258
r 0.743308 18 22 tcp 40 ------- 0 18.1012 20.1203 0 22289
r 0.745441 18 22 tcp 40 ------- 0 18.110 5.879 0 23716
r 0.747575 18 22 tcp 40 ------- 0 9.1320 22.868 0 22505
r 0.749708 18 22 ack 40 ------- 0 2.685 22.76 1 24288
r 0.751841 18 22 ack 40 ------- 0 11.931 22.308 2 21115
r 0.753975 18 22 ack 40 ------- 0 2.685 22.76 2 27721
+ 0.777354 18 22 tcp 40 ------- 0 9.1334 22.882 0 29003
- 0.777354 18 22 tcp 40 ------- 0 9.1334 22.882 0 29003
r 0.799215 18 22 tcp 40 ------- 0 9.1334 22.882 0 29003
+ 0.813058 18 22 tcp 40 ------- 0 2.1211 22.681 0 31250
- 0.813058 18 22 tcp 40 ------- 0 2.1211 22.681 0 31250
+ 0.822826 18 22 tcp 40 ------- 0 9.1321 22.869 0 29758
- 0.822826 18 22 tcp 40 ------- 0 9.1321 22.869 0 29758
r 0.834919 18 22 tcp 40 ------- 0 2.1211 22.681 0 31250
r 0.844687 18 22 tcp 40 ------- 0 9.1321 22.869 0 29758
+ 0.888127 18 22 tcp 40 ------- 0 17.1368 22.949 0 34026
- 0.888127 18 22 tcp 40 ------- 0 17.1368 22.949 0 34026
+ 0.891292 18 22 ack 40 ------- 0 2.678 22.69 0 34689
- 0.891292 18 22 ack 40 ------- 0 2.678 22.69 0 34689
r 0.909988 18 22 tcp 40 ------- 0 17.1368 22.949 0 34026
r 0.913153 18 22 ack 40 ------- 0 2.678 22.69 0 34689
+ 0.916538 18 22 tcp 40 ------- 0 18.1002 20.1193 0 35943
- 0.916538 18 22 tcp 40 ------- 0 18.1002 20.1193 0 35943
+ 0.917895 18 22 tcp 40 ------- 0 18.107 5.876 0 36002
- 0.918671 18 22 tcp 40 ------- 0 18.107 5.876 0 36002
r 0.938399 18 22 tcp 40 ------- 0 18.1002 20.1193 0 35943
r 0.940532 18 22 tcp 40 ------- 0 18.107 5.876 0 36002
+ 0.951626 18 22 ack 40 ------- 0 16.902 22.483 1 33259
- 0.951626 18 22 ack 40 ------- 0 16.902 22.483 1 33259
+ 0.968767 18 22 tcp 40 ------- 0 1.1907 22.669 0 36059
- 0.968767 18 22 tcp 40 ------- 0 1.1907 22.669 0 36059
+ 0.969279 18 22 tcp 40 ------- 0 17.1388 22.969 0 37921
- 0.970901 18 22 tcp 40 ------- 0 17.1388 22.969 0 37921
r 0.973487 18 22 ack 40 ------- 0 16.902 22.483 1 33259
r 0.990628 18 22 tcp 40 ------- 0 1.1907 22.669 0 36059
r 0.992762 18 22 tcp 40 ------- 0 17.1388 22.969 0 37921
+ 0.995055 18 22 ack 40 ------- 0 16.902 22.483 2 34920
- 0.995055 18 22 ack 40 ------- 0 16.902 22.483 2 34920
+ 0.995212 18 22 ack 40 ------- 0 16.858 22.439 0 34927
- 0.997189 18 22 ack 40 ------- 0 16.858 22.439 0 34927
r 1.016917 18 22 ack 40 ------- 0 16.902 22.483 2 34920
r 1.01905 18 22 ack 40 ------- 0 16.858 22.439 0 34927
+ 1.027754 18 22 tcp 40 ------- 0 9.1323 22.871 0 39252
- 1.027754 18 22 tcp 40 ------- 0 9.1323 22.871 0 39252
+ 1.027786 18 22 tcp 40 ------- 0 9.1309 22.857 0 39304
- 1.029888 18 22 tcp 40 ------- 0 9.1309 22.857 0 39304
+ 1.032874 18 22 ack 40 ------- 0 11.981 22.358 0 36358
- 1.032874 18 22 ack 40 ------- 0 11.981 22.358 0 36358
+ 1.035422 18 22 ack 40 ------- 0 18.955 20.628 0 41034
- 1.035422 18 22 ack 40 ------- 0 18.955 20.628 0 41034
+ 1.039689 18 22 ack 40 ------- 0 18.387 5.1491 0 41197
- 1.039689 18 22 ack 40 ------- 0 18.387 5.1491 0 41197
+ 1.039898 18 22 ack 40 ------- 0 9.972 22.290 0 39667
- 1.041822 18 22 ack 40 ------- 0 9.972 22.290 0 39667
r 1.049615 18 22 tcp 40 ------- 0 9.1323 22.871 0 39252
r 1.051749 18 22 tcp 40 ------- 0 9.1309 22.857 0 39304
r 1.054735 18 22 ack 40 ------- 0 11.981 22.358 0 36358
r 1.057284 18 22 ack 40 ------- 0 18.955 20.628 0 41034
r 1.06155 18 22 ack 40 ------- 0 18.387 5.1491 0 41197
r 1.063684 18 22 ack 40 ------- 0 9.972 22.290 0 39667
+ 1.067599 18 22 tcp 40 ------- 0 18.1031 22.981 0 42450
- 1.067599 18 22 tcp 40 ------- 0 18.1031 22.981 0 42450
+ 1.071196 18 22 ack 40 ------- 0 2.692 22.83 0 42515
- 1.071196 18 22 ack 40 ------- 0 2.692 22.83 0 42515
+ 1.085626 18 22 tcp 40 ------- 0 2.1212 22.682 0 42968
- 1.085626 18 22 tcp 40 ------- 0 2.1212 22.682 0 42968
r 1.08946 18 22 tcp 40 ------- 0 18.1031 22.981 0 42450
r 1.093057 18 22 ack 40 ------- 0 2.692 22.83 0 42515
r 1.107487 18 22 tcp 40 ------- 0 2.1212 22.682 0 42968
+ 1.12393 18 22 ack 40 ------- 0 11.973 22.350 1 39807
- 1.12393 18 22 ack 40 ------- 0 11.973 22.350 1 39807
r 1.145791 18 22 ack 40 ------- 0 11.973 22.350 1 39807
+ 1.154943 18 22 ack 40 ------- 0 17.1249 22.527 0 45171
- 1.154943 18 22 ack 40 ------- 0 17.1249 22.527 0 45171
+ 1.159999 18 22 tcp 40 ------- 0 17.1384 22.965 0 45195
- 1.159999 18 22 tcp 40 ------- 0 17.1384 22.965 0 45195
+ 1.160154 18 22 ack 40 ------- 0 11.973 22.350 2 43165
- 1.162133 18 22 ack 40 ------- 0 11.973 22.350 2 43165
+ 1.162936 18 22 tcp 40 ------- 0 18.1029 22.979 0 46708
+ 1.163914 18 22 ack 40 ------- 0 11.988 22.365 0 43176
- 1.164266 18 22 tcp 40 ------- 0 18.1029 22.979 0 46708
- 1.166399 18 22 ack 40 ------- 0 11.988 22.365 0 43176
r 1.176804 18 22 ack 40 ------- 0 17.1249 22.527 0 45171
r 1.18186 18 22 tcp 40 ------- 0 17.1384 22.965 0 45195
r 1.183994 18 22 ack 40 ------- 0 11.973 22.350 2 43165
+ 1.184431 18 22 ack 40 ------- 0 16.896 22.477 0 43279
- 1.184431 18 22 ack 40 ------- 0 16.896 22.477 0 43279
+ 1.184559 18 22 ack 40 ------- 0 16.931 22.512 0 43287
r 1.186127 18 22 tcp 40 ------- 0 18.1029 22.979 0 46708
- 1.186565 18 22 ack 40 ------- 0 16.931 22.512 0 43287
r 1.18826 18 22 ack 40 ------- 0 11.988 22.365 0 43176
r 1.206293 18 22 ack 40 ------- 0 16.896 22.477 0 43279
r 1.208426 18 22 ack 40 ------- 0 16.931 22.512 0 43287
+ 1.210943 18 22 ack 40 ------- 0 17.1254 22.532 2 47972
- 1.210943 18 22 ack 40 ------- 0 17.1254 22.532 2 47972
+ 1.211199 18 22 tcp 40 ------- 0 17.1378 22.959 0 48417
- 1.213077 18 22 tcp 40 ------- 0 17.1378 22.959 0 48417
+ 1.215109 18 22 tcp 40 ------- 0 18.1001 20.1192 0 49107
- 1.21521 18 22 tcp 40 ------- 0 18.1001 20.1192 0 49107
+ 1.218739 18 22 tcp 40 ------- 0 18.94 5.863 0 49319
- 1.218739 18 22 tcp 40 ------- 0 18.94 5.863 0 49319
+ 1.225963 18 22 tcp 40 ------- 0 18.1033 22.983 0 49624
- 1.225963 18 22 tcp 40 ------- 0 18.1033 22.983 0 49624
r 1.232804 18 22 ack 40 ------- 0 17.1254 22.532 2 47972
r 1.234938 18 22 tcp 40 ------- 0 17.1378 22.959 0 48417
r 1.237071 18 22 tcp 40 ------- 0 18.1001 20.1192 0 49107
+ 1.237868 18 22 ack 40 ------- 0 2.685 22.76 2 50100
- 1.237868 18 22 ack 40 ------- 0 2.685 22.76 2 50100
r 1.2406 18 22 tcp 40 ------- 0 18.94 5.863 0 49319
r 1.247824 18 22 tcp 40 ------- 0 18.1033 22.983 0 49624
+ 1.248467 18 22 tcp 40 ------- 0 9.1342 22.890 0 48802
- 1.248467 18 22 tcp 40 ------- 0 9.1342 22.890 0 48802
r 1.259729 18 22 ack 40 ------- 0 2.685 22.76 2 50100
r 1.270328 18 22 tcp 40 ------- 0 9.1342 22.890 0 48802
+ 1.309175 18 22 tcp 40 ------- 0 18.1004 20.1195 0 53473
- 1.309175 18 22 tcp 40 ------- 0 18.1004 20.1195 0 53473
+ 1.310252 18 22 tcp 40 ------- 0 9.1308 22.856 0 51280
- 1.311308 18 22 tcp 40 ------- 0 9.1308 22.856 0 51280
r 1.331036 18 22 tcp 40 ------- 0 18.1004 20.1195 0 53473
+ 1.331548 18 22 tcp 40 ------- 0 2.1208 22.678 0 54149
- 1.331548 18 22 tcp 40 ------- 0 2.1208 22.678 0 54149
r 1.333169 18 22 tcp 40 ------- 0 9.1308 22.856 0 51280
+ 1.340131 18 22 tcp 40 ------- 0 9.1310 22.858 0 52734
- 1.340131 18 22 tcp 40 ------- 0 9.1310 22.858 0 52734
r 1.353409 18 22 tcp 40 ------- 0 2.1208 22.678 0 54149
r 1.361992 18 22 tcp 40 ------- 0 9.1310 22.858 0 52734
+ 1.435711 18 22 ack 40 ------- 0 17.1254 22.532 2 58999
- 1.435711 18 22 ack 40 ------- 0 17.1254 22.532 2 58999
r 1.457572 18 22 ack 40 ------- 0 17.1254 22.532 2 58999
+ 1.458866 18 22 tcp 40 ------- 0 18.1007 20.1198 0 60092
- 1.458866 18 22 tcp 40 ------- 0 18.1007 20.1198 0 60092
+ 1.477311 18 22 tcp 40 ------- 0 18.1005 20.1196 0 60989
- 1.477311 18 22 tcp 40 ------- 0 18.1005 20.1196 0 60989
r 1.480727 18 22 tcp 40 ------- 0 18.1007 20.1198 0 60092
r 1.499172 18 22 tcp 40 ------- 0 18.1005 20.1196 0 60989
+ 1.515811 18 22 tcp 40 ------- 0 18.1027 22.977 0 62794
- 1.515811 18 22 tcp 40 ------- 0 18.1027 22.977 0 62794
+ 1.531391 18 22 tcp 1540 ------- 0 17.1387 22.968 1 62350
- 1.531391 18 22 tcp 1540 ------- 0 17.1387 22.968 1 62350
+ 1.536319 18 22 tcp 1540 ------- 0 17.1387 22.968 2 62351
r 1.537672 18 22 tcp 40 ------- 0 18.1027 22.977 0 62794
+ 1.543081 18 22 tcp 40 ------- 0 18.1008 20.1199 0 64100
+ 1.573231 18 22 ack 40 ------- 0 16.904 22.485 0 59070
+ 1.573615 18 22 ack 40 ------- 0 16.875 22.456 0 59536
+ 1.573743 18 22 ack 40 ------- 0 16.930 22.511 0 59544
+ 1.587519 18 22 ack 40 ------- 0 17.1251 22.529 0 65491
+ 1.593087 18 22 tcp 40 ------- 0 17.1371 22.952 0 65950
+ 1.594115 18 22 tcp 1540 ------- 0 9.1317 22.865 2 63638
+ 1.598655 18 22 tcp 40 ------- 0 0.1387 22.660 0 65683
+ 1.604956 18 22 tcp 1540 ------- 0 9.1324 22.872 1 63913
d 1.604956 18 22 tcp 1540 ------- 0 9.1324 22.872 1 63913
+ 1.610044 18 22 tcp 40 ------- 0 2.1210 22.680 0 66697
d 1.610044 18 22 tcp 40 ------- 0 2.1210 22.680 0 66697
- 1.613525 18 22 tcp 1540 ------- 0 17.1387 22.968 2 62351
+ 1.618195 18 22 tcp 40 ------- 0 9.1341 22.889 0 65246
r 1.633252 18 22 tcp 1540 ------- 0 17.1387 22.968 1 62350
+ 1.65478 18 22 tcp 40 ------- 0 9.1326 22.874 0 67220
d 1.65478 18 22 tcp 40 ------- 0 9.1326 22.874 0 67220
- 1.695658 18 22 tcp 40 ------- 0 18.1008 20.1199 0 64100
- 1.697791 18 22 ack 40 ------- 0 16.904 22.485 0 59070
- 1.699925 18 22 ack 40 ------- 0 16.875 22.456 0 59536
- 1.702058 18 22 ack 40 ------- 0 16.930 22.511 0 59544
- 1.704191 18 22 ack 40 ------- 0 17.1251 22.529 0 65491
- 1.706325 18 22 tcp 40 ------- 0 17.1371 22.952 0 65950
+ 1.706867 18 22 ack 40 ------- 0 2.679 22.70 0 71478
- 1.708458 18 22 tcp 1540 ------- 0 9.1317 22.865 2 63638
r 1.715386 18 22 tcp 1540 ------- 0 17.1387 22.968 2 62351
r 1.717519 18 22 tcp 40 ------- 0 18.1008 20.1199 0 64100
r 1.719652 18 22 ack 40 ------- 0 16.904 22.485 0 59070
r 1.721786 18 22 ack 40 ------- 0 16.875 22.456 0 59536
r 1.723919 18 22 ack 40 ------- 0 16.930 22.511 0 59544
r 1.726052 18 22 ack 40 ------- 0 17.1251 22.529 0 65491
r 1.728186 18 22 tcp 40 ------- 0 17.1371 22.952 0 65950
+ 1.731802 18 22 tcp 40 ------- 0 18.1034 22.984 0 72713
+ 1.755132 18 22 tcp 1540 ---A--- 0 2.1214 22.684 1 73587
+ 1.756415 18 22 tcp 40 ------- 0 17.1375 22.956 0 73238
+ 1.760963 18 22 tcp 40 ------- 0 9.1329 22.877 0 72489
+ 1.764818 18 22 tcp 40 ------- 0 18.104 5.873 0 74272
- 1.790591 18 22 tcp 40 ------- 0 0.1387 22.660 0 65683
+ 1.791683 18 22 ack 40 ------- 0 11.931 22.308 2 67827
- 1.792725 18 22 tcp 40 ------- 0 9.1341 22.889 0 65246
- 1.794858 18 22 ack 40 ------- 0 2.679 22.70 0 71478
- 1.796991 18 22 tcp 40 ------- 0 18.1034 22.984 0 72713
+ 1.797502 18 22 tcp 40 ------- 0 18.1000 20.1191 0 75838
- 1.799125 18 22 tcp 1540 ---A--- 0 2.1214 22.684 1 73587
r 1.810319 18 22 tcp 1540 ------- 0 9.1317 22.865 2 63638
r 1.812452 18 22 tcp 40 ------- 0 0.1387 22.660 0 65683
r 1.814586 18 22 tcp 40 ------- 0 9.1341 22.889 0 65246
r 1.816719 18 22 ack 40 ------- 0 2.679 22.70 0 71478
r 1.818852 18 22 tcp 40 ------- 0 18.1034 22.984 0 72713
+ 1.833059 18 22 tcp 40 ------- 0 9.1312 22.860 0 76812
+ 1.846623 18 22 ack 40 ------- 0 16.902 22.483 2 71842
+ 1.853556 18 22 ack 40 ------- 0 18.392 5.1496 0 78351
+ 1.855689 18 22 ack 40 ------- 0 18.983 22.537 0 78449
+ 1.880275 18 22 ack 40 ------- 0 11.973 22.350 2 75444
d 1.880275 18 22 ack 40 ------- 0 11.973 22.350 2 75444
+ 1.880339 18 22 ack 40 ------- 0 11.954 22.331 0 75453
d 1.880339 18 22 ack 40 ------- 0 11.954 22.331 0 75453
- 1.881258 18 22 tcp 40 ------- 0 17.1375 22.956 0 73238
- 1.883391 18 22 tcp 40 ------- 0 9.1329 22.877 0 72489
- 1.885525 18 22 tcp 40 ------- 0 18.104 5.873 0 74272
- 1.887658 18 22 ack 40 ------- 0 11.931 22.308 2 67827
- 1.889791 18 22 tcp 40 ------- 0 18.1000 20.1191 0 75838
+ 1.891596 18 22 ack 40 ------- 0 2.701 22.92 0 80079
- 1.891925 18 22 tcp 40 ------- 0 9.1312 22.860 0 76812
- 1.894058 18 22 ack 40 ------- 0 16.902 22.483 2 71842
- 1.896191 18 22 ack 40 ------- 0 18.392 5.1496 0 78351
- 1.898325 18 22 ack 40 ------- 0 18.983 22.537 0 78449
+ 1.899439 18 22 tcp 40 ------- 0 17.1386 22.967 0 79727
+ 1.899823 18 22 ack 40 ------- 0 0.548 22.39 0 79823
- 1.900458 18 22 ack 40 ------- 0 2.701 22.92 0 80079
r 1.900986 18 22 tcp 1540 ---A--- 0 2.1214 22.684 1 73587
- 1.902591 18 22 tcp 40 ------- 0 17.1386 22.967 0 79727
r 1.903119 18 22 tcp 40 ------- 0 17.1375 22.956 0 73238
- 1.904725 18 22 ack 40 ------- 0 0.548 22.39 0 79823
r 1.905252 18 22 tcp 40 ------- 0 9.1329 22.877 0 72489
r 1.907386 18 22 tcp 40 ------- 0 18.104 5.873 0 74272
r 1.909519 18 22 ack 40 ------- 0 11.931 22.308 2 67827
r 1.911652 18 22 tcp 40 ------- 0 18.1000 20.1191 0 75838
r 1.913786 18 22 tcp 40 ------- 0 9.1312 22.860 0 76812
r 1.915919 18 22 ack 40 ------- 0 16.902 22.483 2 71842
+ 1.917039 18 22 ack 40 ------- 0 16.925 22.506 0 75483
- 1.917039 18 22 ack 40 ------- 0 16.925 22.506 0 75483
r 1.918052 18 22 ack 40 ------- 0 18.392 5.1496 0 78351
r 1.920186 18 22 ack 40 ------- 0 18.983 22.537 0 78449
r 1.922319 18 22 ack 40 ------- 0 2.701 22.92 0 80079
r 1.924452 18 22 tcp 40 ------- 0 17.1386 22.967 0 79727
r 1.926586 18 22 ack 40 ------- 0 0.548 22.39 0 79823
r 1.938901 18 22 ack 40 ------- 0 16.925 22.506 0 75483
+ 1.948543 18 22 ack 40 ------- 0 0.541 22.32 0 80585
- 1.948543 18 22 ack 40 ------- 0 0.541 22.32 0 80585
+ 1.966053 18 22 tcp 40 ------- 0 18.1014 20.1205 0 83874
- 1.966053 18 22 tcp 40 ------- 0 18.1014 20.1205 0 83874
r 1.970404 18 22 ack 40 ------- 0 0.541 22.32 0 80585
r 1.987914 18 22 tcp 40 ------- 0 18.1014 20.1205 0 83874
+ 1.994559 18 22 tcp 40 ------- 0 17.1376 22.957 0 84432
- 1.994559 18 22 tcp 40 ------- 0 17.1376 22.957 0 84432
+ 1.994799 18 22 ack 40 ------- 0 16.926 22.507 0 82527
- 1.996693 18 22 ack 40 ------- 0 16.926 22.507 0 82527
+ 2.003189 18 22 tcp 40 ------- 0 18.96 5.865 0 85676
- 2.003189 18 22 tcp 40 ------- 0 18.96 5.865 0 85676
r 2.01642 18 22 tcp 40 ------- 0 17.1376 22.957 0 84432
r 2.018554 18 22 ack 40 ------- 0 16.926 22.507 0 82527
r 2.02505 18 22 tcp 40 ------- 0 18.96 5.865 0 85676
+ 2.035775 18 22 tcp 40 ------- 0 17.1381 22.962 0 86669
- 2.035775 18 22 tcp 40 ------- 0 17.1381 22.962 0 86669
r 2.057636 18 22 tcp 40 ------- 0 17.1381 22.962 0 86669
+ 2.090581 18 22 tcp 40 ------- 0 18.101 5.870 0 89738
- 2.090581 18 22 tcp 40 ------- 0 18.101 5.870 0 89738
r 2.112442 18 22 tcp 40 ------- 0 18.101 5.870 0 89738
+ 2.117736 18 22 tcp 40 ------- 0 9.1313 22.861 0 88938
- 2.117736 18 22 tcp 40 ------- 0 9.1313 22.861 0 88938
+ 2.131423 18 22 ack 40 ------- 0 16.858 22.439 1 89358
- 2.131423 18 22 ack 40 ------- 0 16.858 22.439 1 89358
r 2.139597 18 22 tcp 40 ------- 0 9.1313 22.861 0 88938
+ 2.140552 18 22 tcp 40 ------- 0 9.1335 22.883 0 89800
- 2.140552 18 22 tcp 40 ------- 0 9.1335 22.883 0 89800
r 2.153285 18 22 ack 40 ------- 0 16.858 22.439 1 89358
+ 2.154703 18 22 tcp 40 ------- 0 0.1388 22.661 0 91772
- 2.154703 18 22 tcp 40 ------- 0 0.1388 22.661 0 91772
r 2.162413 18 22 tcp 40 ------- 0 9.1335 22.883 0 89800
r 2.176564 18 22 tcp 40 ------- 0 0.1388 22.661 0 91772
+ 2.192295 18 22 rtProtoDV 26 ------- 0 18.1037 22.1166 -1 94430
- 2.192295 18 22 rtProtoDV 26 ------- 0 18.1037 22.1166 -1 94430
r 2.21341 18 22 rtProtoDV 26 ------- 0 18.1037 22.1166 -1 94430
+ 2.245624 18 22 ack 40 ------- 0 16.858 22.439 2 92727
- 2.245624 18 22 ack 40 ------- 0 16.858 22.439 2 92727
r 2.267485 18 22 ack 40 ------- 0 16.858 22.439 2 92727
+ 2.310689 18 22 ack 40 ------- 0 2.688 22.79 0 99840
- 2.310689 18 22 ack 40 ------- 0 2.688 22.79 0 99840
+ 2.314367 18 22 tcp 40 ------- 0 17.1364 22.945 0 98968
- 2.314367 18 22 tcp 40 ------- 0 17.1364 22.945 0 98968
+ 2.316504 18 22 tcp 40 ------- 0 9.1315 22.863 0 97682
- 2.316504 18 22 tcp 40 ------- 0 9.1315 22.863 0 97682
+ 2.322268 18 22 ack 40 ------- 0 1.986 22.50 0 98682
- 2.322268 18 22 ack 40 ------- 0 1.986 22.50 0 98682
r 2.33255 18 22 ack 40 ------- 0 2.688 22.79 0 99840
r 2.336228 18 22 tcp 40 ------- 0 17.1364 22.945 0 98968
r 2.338365 18 22 tcp 40 ------- 0 9.1315 22.863 0 97682
r 2.344129 18 22 ack 40 ------- 0 1.986 22.50 0 98682
+ 2.351544 18 22 ack 40 ------- 0 11.981 22.358 1 96153
- 2.351544 18 22 ack 40 ------- 0 11.981 22.358 1 96153
r 2.373405 18 22 ack 40 ------- 0 11.981 22.358 1 96153
+ 2.410648 18 22 tcp 40 ------- 0 9.1337 22.885 0 102884
- 2.410648 18 22 tcp 40 ------- 0 9.1337 22.885 0 102884
r 2.432509 18 22 tcp 40 ------- 0 9.1337 22.885 0 102884
+ 2.452198 18 22 tcp 40 ------- 0 1.1910 22.672 0 103405
- 2.452198 18 22 tcp 40 ------- 0 1.1910 22.672 0 103405
r 2.474059 18 22 tcp 40 ------- 0 1.1910 22.672 0 103405
+ 2.488127 18 22 tcp 40 ------- 0 17.1395 22.976 0 107442
- 2.488127 18 22 tcp 40 ------- 0 17.1395 22.976 0 107442
r 2.509988 18 22 tcp 40 ------- 0 17.1395 22.976 0 107442
+ 2.526057 18 22 tcp 40 ------- 0 18.1006 20.1197 0 110034
- 2.526057 18 22 tcp 40 ------- 0 18.1006 20.1197 0 110034
+ 2.534089 18 22 ack 40 ------- 0 18.385 5.1489 0 110383
- 2.534089 18 22 ack 40 ------- 0 18.385 5.1489 0 110383
+ 2.543231 18 22 tcp 40 ------- 0 17.1393 22.974 0 109285
- 2.543231 18 22 tcp 40 ------- 0 17.1393 22.974 0 109285
r 2.547918 18 22 tcp 40 ------- 0 18.1006 20.1197 0 110034
r 2.55595 18 22 ack 40 ------- 0 18.385 5.1489 0 110383
+ 2.55676 18 22 tcp 40 ------- 0 9.1306 22.854 0 108162
- 2.55676 18 22 tcp 40 ------- 0 9.1306 22.854 0 108162
+ 2.562833 18 22 ack 40 ------- 0 16.896 22.477 1 107792
- 2.562833 18 22 ack 40 ------- 0 16.896 22.477 1 107792
r 2.565092 18 22 tcp 40 ------- 0 17.1393 22.974 0 109285
+ 2.574145 18 22 ack 40 ------- 0 2.708 22.99 0 112136
- 2.574145 18 22 ack 40 ------- 0 2.708 22.99 0 112136
r 2.578621 18 22 tcp 40 ------- 0 9.1306 22.854 0 108162
r 2.584694 18 22 ack 40 ------- 0 16.896 22.477 1 107792
+ 2.594303 18 22 tcp 40 ------- 0 0.1391 22.664 0 111835
- 2.594303 18 22 tcp 40 ------- 0 0.1391 22.664 0 111835
r 2.596006 18 22 ack 40 ------- 0 2.708 22.99 0 112136
+ 2.601197 18 22 tcp 40 ------- 0 18.100 5.869 0 113552
- 2.601197 18 22 tcp 40 ------- 0 18.100 5.869 0 113552
r 2.616164 18 22 tcp 40 ------- 0 0.1391 22.664 0 111835
r 2.623058 18 22 tcp 40 ------- 0 18.100 5.869 0 113552
+ 2.627538 18 22 tcp 40 ------- 0 18.98 5.867 0 114731
- 2.627538 18 22 tcp 40 ------- 0 18.98 5.867 0 114731
+ 2.629647 18 22 tcp 40 ------- 0 18.105 5.874 0 114818
- 2.629672 18 22 tcp 40 ------- 0 18.105 5.874 0 114818
r 2.6494 18 22 tcp 40 ------- 0 18.98 5.867 0 114731
r 2.651533 18 22 tcp 40 ------- 0 18.105 5.874 0 114818
+ 2.653169 18 22 ack 40 ------- 0 2.686 22.77 0 115553
- 2.653169 18 22 ack 40 ------- 0 2.686 22.77 0 115553
+ 2.654975 18 22 tcp 40 ------- 0 17.1394 22.975 0 115058
- 2.655302 18 22 tcp 40 ------- 0 17.1394 22.975 0 115058
r 2.67503 18 22 ack 40 ------- 0 2.686 22.77 0 115553
r 2.677163 18 22 tcp 40 ------- 0 17.1394 22.975 0 115058
+ 2.691288 18 22 ack 40 ------- 0 16.896 22.477 2 113954
- 2.691288 18 22 ack 40 ------- 0 16.896 22.477 2 113954
+ 2.691576 18 22 ack 40 ------- 0 16.921 22.502 0 114174
- 2.693421 18 22 ack 40 ------- 0 16.921 22.502 0 114174
+ 2.711156 18 22 tcp 1540 ------- 0 18.1027 22.977 1 118858
- 2.711156 18 22 tcp 1540 ------- 0 18.1027 22.977 1 118858
+ 2.711156 18 22 tcp 1540 ------- 0 18.1027 22.977 2 118859
r 2.713149 18 22 ack 40 ------- 0 16.896 22.477 2 113954
+ 2.713289 18 22 ack 40 ------- 0 18.953 20.626 0 118967
r 2.715282 18 22 ack 40 ------- 0 16.921 22.502 0 114174
+ 2.715422 18 22 ack 40 ------- 0 18.380 5.1484 0 119080
+ 2.726623 18 22 tcp 40 ------- 0 18.93 5.862 0 119589
+ 2.740415 18 22 ack 40 ------- 0 17.1254 22.532 2 118790
+ 2.740927 18 22 tcp 40 ------- 0 17.1366 22.947 0 119619
+ 2.753114 18 22 tcp 40 ------- 0 18.113 5.882 0 120864
- 2.793289 18 22 tcp 1540 ------- 0 18.1027 22.977 2 118859
+ 2.802801 18 22 ack 40 ------- 0 16.874 22.455 0 117741
r 2.813017 18 22 tcp 1540 ------- 0 18.1027 22.977 1 118858
+ 2.865939 18 22 tcp 1540 ------- 0 17.1387 22.968 3 124925
+ 2.870867 18 22 tcp 1540 ------- 0 17.1387 22.968 4 124926
+ 2.870995 18 22 ack 40 ------- 0 17.1252 22.530 0 124930
d 2.870995 18 22 ack 40 ------- 0 17.1252 22.530 0 124930
+ 2.874707 18 22 ack 40 ------- 0 16.868 22.449 0 121933
d 2.874707 18 22 ack 40 ------- 0 16.868 22.449 0 121933
+ 2.874739 18 22 ack 40 ------- 0 16.886 22.467 0 121949
d 2.874739 18 22 ack 40 ------- 0 16.886 22.467 0 121949
- 2.875422 18 22 ack 40 ------- 0 18.953 20.626 0 118967
+ 2.876051 18 22 ack 40 ------- 0 17.1250 22.528 0 124959
- 2.877556 18 22 ack 40 ------- 0 18.380 5.1484 0 119080
- 2.879689 18 22 tcp 40 ------- 0 18.93 5.862 0 119589
- 2.881822 18 22 ack 40 ------- 0 17.1254 22.532 2 118790
- 2.883956 18 22 tcp 40 ------- 0 17.1366 22.947 0 119619
- 2.886089 18 22 tcp 40 ------- 0 18.113 5.882 0 120864
- 2.888222 18 22 ack 40 ------- 0 16.874 22.455 0 117741
- 2.890356 18 22 tcp 1540 ------- 0 17.1387 22.968 3 124925
+ 2.891731 18 22 tcp 40 ------- 0 17.1385 22.966 0 126919
r 2.89515 18 22 tcp 1540 ------- 0 18.1027 22.977 2 118859
r 2.897284 18 22 ack 40 ------- 0 18.953 20.626 0 118967
r 2.899417 18 22 ack 40 ------- 0 18.380 5.1484 0 119080
r 2.90155 18 22 tcp 40 ------- 0 18.93 5.862 0 119589
r 2.903684 18 22 ack 40 ------- 0 17.1254 22.532 2 118790
r 2.905817 18 22 tcp 40 ------- 0 17.1366 22.947 0 119619
r 2.90795 18 22 tcp 40 ------- 0 18.113 5.882 0 120864
+ 2.909556 18 22 ack 40 ------- 0 18.388 5.1492 0 128420
r 2.910084 18 22 ack 40 ------- 0 16.874 22.455 0 117741
+ 2.911689 18 22 tcp 1540 ------- 0 18.107 5.876 1 128522
+ 2.911689 18 22 tcp 1540 ------- 0 18.107 5.876 2 128523
+ 2.922543 18 22 ack 40 ------- 0 17.1254 22.532 5 128573
+ 2.937711 18 22 tcp 40 ------- 0 17.1365 22.946 0 129019
+ 2.937713 18 22 ack 40 ------- 0 2.695 22.86 0 129522
- 2.972489 18 22 tcp 1540 ------- 0 17.1387 22.968 4 124926
r 2.992217 18 22 tcp 1540 ------- 0 17.1387 22.968 3 124925
+ 2.993777 18 22 ack 40 ------- 0 16.859 22.440 0 127035
+ 2.997599 18 22 tcp 1540 ------- 0 17.1375 22.956 1 131326
d 2.997599 18 22 tcp 1540 ------- 0 17.1375 22.956 1 131326
+ 3.002527 18 22 tcp 1540 ------- 0 17.1375 22.956 2 131327
d 3.002527 18 22 tcp 1540 ------- 0 17.1375 22.956 2 131327
+ 3.028568 18 22 ack 40 ------- 0 16.902 22.483 4 130143
d 3.028568 18 22 ack 40 ------- 0 16.902 22.483 4 130143
+ 3.031978 18 22 tcp 40 ------- 0 18.95 5.864 0 134503
d 3.031978 18 22 tcp 40 ------- 0 18.95 5.864 0 134503
+ 3.036401 18 22 ack 40 ------- 0 16.941 22.522 0 130626
d 3.036401 18 22 ack 40 ------- 0 16.941 22.522 0 130626
+ 3.036433 18 22 ack 40 ------- 0 16.919 22.500 0 130637
d 3.036433 18 22 ack 40 ------- 0 16.919 22.500 0 130637