+ 0.00729 25 5 rtProtoDV 26 ------- 0 25.773 5.1623 -1 168
- 0.00729 25 5 rtProtoDV 26 ------- 0 25.773 5.1623 -1 168
r 0.010416 25 5 rtProtoDV 26 ------- 0 25.773 5.1623 -1 168
+ 0.010617 25 5 rtProtoDV 26 ------- 0 25.773 5.1623 -1 328
- 0.010617 25 5 rtProtoDV 26 ------- 0 25.773 5.1623 -1 328
+ 0.011082 25 5 rtProtoDV 26 ------- 0 25.773 5.1623 -1 368
- 0.011082 25 5 rtProtoDV 26 ------- 0 25.773 5.1623 -1 368
+ 0.011449 25 5 rtProtoDV 26 ------- 0 25.773 5.1623 -1 389
- 0.011449 25 5 rtProtoDV 26 ------- 0 25.773 5.1623 -1 389
+ 0.013061 25 5 rtProtoDV 26 ------- 0 25.773 5.1623 -1 473
- 0.013061 25 5 rtProtoDV 26 ------- 0 25.773 5.1623 -1 473
r 0.013742 25 5 rtProtoDV 26 ------- 0 25.773 5.1623 -1 328
r 0.014207 25 5 rtProtoDV 26 ------- 0 25.773 5.1623 -1 368
r 0.014574 25 5 rtProtoDV 26 ------- 0 25.773 5.1623 -1 389
+ 0.015773 25 5 rtProtoDV 26 ------- 0 25.773 5.1623 -1 580
- 0.015773 25 5 rtProtoDV 26 ------- 0 25.773 5.1623 -1 580
r 0.016187 25 5 rtProtoDV 26 ------- 0 25.773 5.1623 -1 473
+ 0.016763 25 5 rtProtoDV 26 ------- 0 25.773 5.1623 -1 626
- 0.016763 25 5 rtProtoDV 26 ------- 0 25.773 5.1623 -1 626
+ 0.017916 25 5 rtProtoDV 26 ------- 0 25.773 5.1623 -1 673
- 0.017916 25 5 rtProtoDV 26 ------- 0 25.773 5.1623 -1 673
r 0.018898 25 5 rtProtoDV 26 ------- 0 25.773 5.1623 -1 580
+ 0.019255 25 5 rtProtoDV 26 ------- 0 25.773 5.1623 -1 722
- 0.019255 25 5 rtProtoDV 26 ------- 0 25.773 5.1623 -1 722
r 0.019889 25 5 rtProtoDV 26 ------- 0 25.773 5.1623 -1 626
r 0.021041 25 5 rtProtoDV 26 ------- 0 25.773 5.1623 -1 673
r 0.022381 25 5 rtProtoDV 26 ------- 0 25.773 5.1623 -1 722
+ 0.040323 25 5 tcp 40 ------- 0 9.315 5.450 0 952
- 0.040323 25 5 tcp 40 ------- 0 9.315 5.450 0 952
+ 0.040355 25 5 tcp 40 ------- 0 9.303 5.438 0 953
- 0.040355 25 5 tcp 40 ------- 0 9.303 5.438 0 953
+ 0.042995 25 5 rtProtoDV 26 ------- 0 25.773 5.1623 -1 1307
- 0.042995 25 5 rtProtoDV 26 ------- 0 25.773 5.1623 -1 1307
r 0.04346 25 5 tcp 40 ------- 0 9.315 5.450 0 952
r 0.043492 25 5 tcp 40 ------- 0 9.303 5.438 0 953
r 0.04612 25 5 rtProtoDV 26 ------- 0 25.773 5.1623 -1 1307
+ 0.070778 25 5 ack 40 ------- 0 6.898 22.281 0 1856
- 0.070778 25 5 ack 40 ------- 0 6.898 22.281 0 1856
r 0.073914 25 5 ack 40 ------- 0 6.898 22.281 0 1856
+ 0.076924 25 5 tcp 1540 ------- 0 9.315 5.450 1 1739
- 0.076924 25 5 tcp 1540 ------- 0 9.315 5.450 1 1739
+ 0.07942 25 5 ack 40 ------- 0 6.430 5.1043 0 1950
- 0.07942 25 5 ack 40 ------- 0 6.430 5.1043 0 1950
+ 0.080652 25 5 tcp 1540 ------- 0 9.315 5.450 2 1740
- 0.080652 25 5 tcp 1540 ------- 0 9.315 5.450 2 1740
r 0.081261 25 5 tcp 1540 ------- 0 9.315 5.450 1 1739
r 0.082557 25 5 ack 40 ------- 0 6.430 5.1043 0 1950
+ 0.084348 25 5 tcp 1540 ------- 0 9.303 5.438 1 1741
- 0.084348 25 5 tcp 1540 ------- 0 9.303 5.438 1 1741
r 0.084989 25 5 tcp 1540 ------- 0 9.315 5.450 2 1740
+ 0.086844 25 5 tcp 40 ------- 0 6.1425 22.846 0 2009
- 0.086844 25 5 tcp 40 ------- 0 6.1425 22.846 0 2009
+ 0.088076 25 5 tcp 1540 ------- 0 9.303 5.438 2 1742
- 0.088076 25 5 tcp 1540 ------- 0 9.303 5.438 2 1742
r 0.088685 25 5 tcp 1540 ------- 0 9.303 5.438 1 1741
r 0.089981 25 5 tcp 40 ------- 0 6.1425 22.846 0 2009
+ 0.092371 25 5 ack 40 ------- 0 25.551 19.1290 0 2802
- 0.092371 25 5 ack 40 ------- 0 25.551 19.1290 0 2802
r 0.092413 25 5 tcp 1540 ------- 0 9.303 5.438 2 1742
+ 0.094867 25 5 ack 40 ------- 0 25.508 17.1412 0 2867
- 0.094867 25 5 ack 40 ------- 0 25.508 17.1412 0 2867
r 0.095508 25 5 ack 40 ------- 0 25.551 19.1290 0 2802
r 0.098004 25 5 ack 40 ------- 0 25.508 17.1412 0 2867
+ 0.101788 25 5 tcp 40 ------- 0 9.321 5.456 0 2275
- 0.101788 25 5 tcp 40 ------- 0 9.321 5.456 0 2275
r 0.104925 25 5 tcp 40 ------- 0 9.321 5.456 0 2275
+ 0.119132 25 5 ack 40 ------- 0 6.430 5.1043 1 2874
- 0.119132 25 5 ack 40 ------- 0 6.430 5.1043 1 2874
+ 0.119164 25 5 ack 40 ------- 0 6.430 5.1043 2 2960
- 0.119164 25 5 ack 40 ------- 0 6.430 5.1043 2 2960
r 0.122269 25 5 ack 40 ------- 0 6.430 5.1043 1 2874
r 0.122301 25 5 ack 40 ------- 0 6.430 5.1043 2 2960
+ 0.124156 25 5 tcp 40 ------- 0 9.302 5.437 0 2766
- 0.124156 25 5 tcp 40 ------- 0 9.302 5.437 0 2766
r 0.127293 25 5 tcp 40 ------- 0 9.302 5.437 0 2766
+ 0.133827 25 5 ack 40 ------- 0 25.65 4.1353 0 4124
- 0.133827 25 5 ack 40 ------- 0 25.65 4.1353 0 4124
r 0.136964 25 5 ack 40 ------- 0 25.65 4.1353 0 4124
+ 0.141628 25 5 tcp 1540 ------- 0 9.315 5.450 3 3177
- 0.141628 25 5 tcp 1540 ------- 0 9.315 5.450 3 3177
+ 0.145324 25 5 tcp 1540 ------- 0 9.315 5.450 4 3178
- 0.145324 25 5 tcp 1540 ------- 0 9.315 5.450 4 3178
r 0.145965 25 5 tcp 1540 ------- 0 9.315 5.450 3 3177
r 0.149661 25 5 tcp 1540 ------- 0 9.315 5.450 4 3178
+ 0.152595 25 5 ack 40 ------- 0 25.508 17.1412 1 4750
- 0.152595 25 5 ack 40 ------- 0 25.508 17.1412 1 4750
+ 0.152627 25 5 ack 40 ------- 0 25.693 21.1177 0 4753
- 0.152627 25 5 ack 40 ------- 0 25.693 21.1177 0 4753
+ 0.155091 25 5 ack 40 ------- 0 25.508 17.1412 2 4849
- 0.155091 25 5 ack 40 ------- 0 25.508 17.1412 2 4849
+ 0.155244 25 5 tcp 1540 ------- 0 9.315 5.450 5 3299
- 0.155244 25 5 tcp 1540 ------- 0 9.315 5.450 5 3299
r 0.155732 25 5 ack 40 ------- 0 25.508 17.1412 1 4750
r 0.155764 25 5 ack 40 ------- 0 25.693 21.1177 0 4753
+ 0.156476 25 5 tcp 1540 ------- 0 9.315 5.450 6 3300
- 0.156476 25 5 tcp 1540 ------- 0 9.315 5.450 6 3300
+ 0.157715 25 5 ack 40 ------- 0 25.2 0.1448 0 4935
- 0.157715 25 5 ack 40 ------- 0 25.2 0.1448 0 4935
r 0.158228 25 5 ack 40 ------- 0 25.508 17.1412 2 4849
r 0.159581 25 5 tcp 1540 ------- 0 9.315 5.450 5 3299
r 0.160813 25 5 tcp 1540 ------- 0 9.315 5.450 6 3300
r 0.160852 25 5 ack 40 ------- 0 25.2 0.1448 0 4935
+ 0.162247 25 5 ack 40 ------- 0 25.642 21.1126 0 5109
- 0.162247 25 5 ack 40 ------- 0 25.642 21.1126 0 5109
+ 0.162586 25 5 ack 40 ------- 0 25.662 21.1146 0 5123
- 0.162586 25 5 ack 40 ------- 0 25.662 21.1146 0 5123
+ 0.162839 25 5 ack 40 ------- 0 25.113 5.1616 0 5128
- 0.162839 25 5 ack 40 ------- 0 25.113 5.1616 0 5128
r 0.165384 25 5 ack 40 ------- 0 25.642 21.1126 0 5109
r 0.165723 25 5 ack 40 ------- 0 25.662 21.1146 0 5123
r 0.165976 25 5 ack 40 ------- 0 25.113 5.1616 0 5128
+ 0.168988 25 5 ack 40 ------- 0 9.639 5.1123 0 3752
- 0.168988 25 5 ack 40 ------- 0 9.639 5.1123 0 3752
+ 0.170313 25 5 ack 40 ------- 0 25.113 5.1616 1 5422
- 0.170313 25 5 ack 40 ------- 0 25.113 5.1616 1 5422
+ 0.171545 25 5 ack 40 ------- 0 25.113 5.1616 2 5507
- 0.171545 25 5 ack 40 ------- 0 25.113 5.1616 2 5507
r 0.172125 25 5 ack 40 ------- 0 9.639 5.1123 0 3752
r 0.173449 25 5 ack 40 ------- 0 25.113 5.1616 1 5422
r 0.174681 25 5 ack 40 ------- 0 25.113 5.1616 2 5507
+ 0.176412 25 5 tcp 40 ------- 0 6.1400 22.821 0 4026
- 0.176412 25 5 tcp 40 ------- 0 6.1400 22.821 0 4026
+ 0.177644 25 5 tcp 1540 ------- 0 9.321 5.456 1 3842
- 0.177644 25 5 tcp 1540 ------- 0 9.321 5.456 1 3842
+ 0.178925 25 5 ack 40 ------- 0 25.113 5.1616 3 5782
- 0.178925 25 5 ack 40 ------- 0 25.113 5.1616 3 5782
r 0.179549 25 5 tcp 40 ------- 0 6.1400 22.821 0 4026
+ 0.180157 25 5 ack 40 ------- 0 25.113 5.1616 4 5821
- 0.180157 25 5 ack 40 ------- 0 25.113 5.1616 4 5821
+ 0.180204 25 5 tcp 40 ------- 0 6.180 5.402 0 4070
- 0.180204 25 5 tcp 40 ------- 0 6.180 5.402 0 4070
+ 0.181389 25 5 ack 40 ------- 0 25.113 5.1616 5 5853
- 0.181389 25 5 ack 40 ------- 0 25.113 5.1616 5 5853
+ 0.181436 25 5 tcp 1540 ------- 0 9.321 5.456 2 3843
- 0.181436 25 5 tcp 1540 ------- 0 9.321 5.456 2 3843
r 0.181981 25 5 tcp 1540 ------- 0 9.321 5.456 1 3842
r 0.182062 25 5 ack 40 ------- 0 25.113 5.1616 3 5782
+ 0.182621 25 5 ack 40 ------- 0 25.113 5.1616 6 5893
- 0.182668 25 5 ack 40 ------- 0 25.113 5.1616 6 5893
r 0.183294 25 5 ack 40 ------- 0 25.113 5.1616 4 5821
r 0.183341 25 5 tcp 40 ------- 0 6.180 5.402 0 4070
+ 0.183932 25 5 ack 40 ------- 0 6.430 5.1043 3 4167
- 0.183932 25 5 ack 40 ------- 0 6.430 5.1043 3 4167
r 0.184526 25 5 ack 40 ------- 0 25.113 5.1616 5 5853
r 0.185773 25 5 tcp 1540 ------- 0 9.321 5.456 2 3843
r 0.185805 25 5 ack 40 ------- 0 25.113 5.1616 6 5893
+ 0.186399 25 5 ack 40 ------- 0 25.113 5.1616 7 6019
- 0.186399 25 5 ack 40 ------- 0 25.113 5.1616 7 6019
+ 0.186428 25 5 ack 40 ------- 0 6.430 5.1043 4 4207
- 0.186431 25 5 ack 40 ------- 0 6.430 5.1043 4 4207
r 0.187069 25 5 ack 40 ------- 0 6.430 5.1043 3 4167
+ 0.187631 25 5 ack 40 ------- 0 25.113 5.1616 8 6049
- 0.187631 25 5 ack 40 ------- 0 25.113 5.1616 8 6049
+ 0.188863 25 5 ack 40 ------- 0 25.113 5.1616 9 6087
- 0.188863 25 5 ack 40 ------- 0 25.113 5.1616 9 6087
+ 0.188956 25 5 ack 40 ------- 0 6.430 5.1043 5 4272
- 0.188956 25 5 ack 40 ------- 0 6.430 5.1043 5 4272
r 0.189535 25 5 ack 40 ------- 0 25.113 5.1616 7 6019
r 0.189567 25 5 ack 40 ------- 0 6.430 5.1043 4 4207
+ 0.190095 25 5 ack 40 ------- 0 25.113 5.1616 10 6145
- 0.190095 25 5 ack 40 ------- 0 25.113 5.1616 10 6145
r 0.190767 25 5 ack 40 ------- 0 25.113 5.1616 8 6049
+ 0.191359 25 5 ack 40 ------- 0 25.113 5.1616 11 6194
- 0.191359 25 5 ack 40 ------- 0 25.113 5.1616 11 6194
r 0.191999 25 5 ack 40 ------- 0 25.113 5.1616 9 6087
r 0.192093 25 5 ack 40 ------- 0 6.430 5.1043 5 4272
+ 0.192591 25 5 ack 40 ------- 0 25.113 5.1616 12 6228
- 0.192591 25 5 ack 40 ------- 0 25.113 5.1616 12 6228
r 0.193231 25 5 ack 40 ------- 0 25.113 5.1616 10 6145
+ 0.193855 25 5 ack 40 ------- 0 25.113 5.1616 13 6263
- 0.193855 25 5 ack 40 ------- 0 25.113 5.1616 13 6263
r 0.194495 25 5 ack 40 ------- 0 25.113 5.1616 11 6194
+ 0.195087 25 5 ack 40 ------- 0 25.113 5.1616 14 6306
- 0.195087 25 5 ack 40 ------- 0 25.113 5.1616 14 6306
r 0.195727 25 5 ack 40 ------- 0 25.113 5.1616 12 6228
r 0.196991 25 5 ack 40 ------- 0 25.113 5.1616 13 6263
+ 0.197676 25 5 tcp 1540 ------- 0 9.302 5.437 1 4472
- 0.197676 25 5 tcp 1540 ------- 0 9.302 5.437 1 4472
r 0.198223 25 5 ack 40 ------- 0 25.113 5.1616 14 6306
+ 0.198783 25 5 ack 40 ------- 0 25.113 5.1616 15 6477
- 0.198908 25 5 ack 40 ------- 0 25.113 5.1616 15 6477
+ 0.200015 25 5 ack 40 ------- 0 25.113 5.1616 16 6520
- 0.200015 25 5 ack 40 ------- 0 25.113 5.1616 16 6520
r 0.202013 25 5 tcp 1540 ------- 0 9.302 5.437 1 4472
r 0.202045 25 5 ack 40 ------- 0 25.113 5.1616 15 6477
r 0.203151 25 5 ack 40 ------- 0 25.113 5.1616 16 6520
+ 0.203711 25 5 ack 40 ------- 0 25.113 5.1616 17 6644
- 0.203711 25 5 ack 40 ------- 0 25.113 5.1616 17 6644
+ 0.204943 25 5 ack 40 ------- 0 25.113 5.1616 18 6688
- 0.204943 25 5 ack 40 ------- 0 25.113 5.1616 18 6688
+ 0.205281 25 5 ack 40 ------- 0 6.425 5.1038 0 5057
- 0.205281 25 5 ack 40 ------- 0 6.425 5.1038 0 5057
+ 0.206175 25 5 ack 40 ------- 0 25.113 5.1616 19 6741
- 0.206175 25 5 ack 40 ------- 0 25.113 5.1616 19 6741
r 0.206847 25 5 ack 40 ------- 0 25.113 5.1616 17 6644
+ 0.207407 25 5 ack 40 ------- 0 25.113 5.1616 20 6779
- 0.207407 25 5 ack 40 ------- 0 25.113 5.1616 20 6779
r 0.208079 25 5 ack 40 ------- 0 25.113 5.1616 18 6688
r 0.208417 25 5 ack 40 ------- 0 6.425 5.1038 0 5057
r 0.209311 25 5 ack 40 ------- 0 25.113 5.1616 19 6741
r 0.210543 25 5 ack 40 ------- 0 25.113 5.1616 20 6779
+ 0.211103 25 5 ack 40 ------- 0 25.113 5.1616 21 6906
- 0.211103 25 5 ack 40 ------- 0 25.113 5.1616 21 6906
+ 0.212335 25 5 ack 40 ------- 0 25.113 5.1616 22 6932
- 0.212335 25 5 ack 40 ------- 0 25.113 5.1616 22 6932
+ 0.213567 25 5 ack 40 ------- 0 25.113 5.1616 23 6968
- 0.213567 25 5 ack 40 ------- 0 25.113 5.1616 23 6968
r 0.214239 25 5 ack 40 ------- 0 25.113 5.1616 21 6906
+ 0.214799 25 5 ack 40 ------- 0 25.113 5.1616 24 7034
- 0.214799 25 5 ack 40 ------- 0 25.113 5.1616 24 7034
+ 0.214831 25 5 ack 40 ------- 0 25.521 19.1260 0 7036
- 0.214831 25 5 ack 40 ------- 0 25.521 19.1260 0 7036
r 0.215471 25 5 ack 40 ------- 0 25.113 5.1616 22 6932
+ 0.216063 25 5 ack 40 ------- 0 25.113 5.1616 25 7085
- 0.216063 25 5 ack 40 ------- 0 25.113 5.1616 25 7085
r 0.216703 25 5 ack 40 ------- 0 25.113 5.1616 23 6968
+ 0.217295 25 5 ack 40 ------- 0 25.113 5.1616 26 7127
- 0.217295 25 5 ack 40 ------- 0 25.113 5.1616 26 7127
+ 0.217633 25 5 tcp 1540 ------- 0 9.315 5.450 7 5325
- 0.217633 25 5 tcp 1540 ------- 0 9.315 5.450 7 5325
r 0.217935 25 5 ack 40 ------- 0 25.113 5.1616 24 7034
r 0.217967 25 5 ack 40 ------- 0 25.521 19.1260 0 7036
+ 0.218527 25 5 ack 40 ------- 0 25.113 5.1616 27 7173
- 0.218865 25 5 ack 40 ------- 0 25.113 5.1616 27 7173
r 0.219199 25 5 ack 40 ------- 0 25.113 5.1616 25 7085
+ 0.219759 25 5 ack 40 ------- 0 25.113 5.1616 28 7206
- 0.219759 25 5 ack 40 ------- 0 25.113 5.1616 28 7206
r 0.220431 25 5 ack 40 ------- 0 25.113 5.1616 26 7127
+ 0.220991 25 5 ack 40 ------- 0 25.113 5.1616 29 7251
- 0.220991 25 5 ack 40 ------- 0 25.113 5.1616 29 7251
+ 0.221361 25 5 tcp 1540 ------- 0 9.315 5.450 8 5326
- 0.221361 25 5 tcp 1540 ------- 0 9.315 5.450 8 5326
r 0.221969 25 5 tcp 1540 ------- 0 9.315 5.450 7 5325
r 0.222001 25 5 ack 40 ------- 0 25.113 5.1616 27 7173
+ 0.222223 25 5 ack 40 ------- 0 25.113 5.1616 30 7297
- 0.222593 25 5 ack 40 ------- 0 25.113 5.1616 30 7297
r 0.222895 25 5 ack 40 ------- 0 25.113 5.1616 28 7206
+ 0.223519 25 5 ack 40 ------- 0 25.113 5.1616 31 7354
- 0.223519 25 5 ack 40 ------- 0 25.113 5.1616 31 7354
r 0.224127 25 5 ack 40 ------- 0 25.113 5.1616 29 7251
+ 0.224751 25 5 ack 40 ------- 0 25.113 5.1616 32 7388
- 0.224751 25 5 ack 40 ------- 0 25.113 5.1616 32 7388
r 0.225697 25 5 tcp 1540 ------- 0 9.315 5.450 8 5326
r 0.225729 25 5 ack 40 ------- 0 25.113 5.1616 30 7297
+ 0.226015 25 5 ack 40 ------- 0 25.113 5.1616 33 7423
- 0.226015 25 5 ack 40 ------- 0 25.113 5.1616 33 7423
r 0.226655 25 5 ack 40 ------- 0 25.113 5.1616 31 7354
+ 0.227247 25 5 ack 40 ------- 0 25.113 5.1616 34 7482
- 0.227247 25 5 ack 40 ------- 0 25.113 5.1616 34 7482
+ 0.227279 25 5 ack 40 ------- 0 25.646 21.1130 0 7483
- 0.227279 25 5 ack 40 ------- 0 25.646 21.1130 0 7483
r 0.227887 25 5 ack 40 ------- 0 25.113 5.1616 32 7388
+ 0.228511 25 5 ack 40 ------- 0 25.113 5.1616 35 7524
- 0.228511 25 5 ack 40 ------- 0 25.113 5.1616 35 7524
r 0.229151 25 5 ack 40 ------- 0 25.113 5.1616 33 7423
+ 0.229743 25 5 ack 40 ------- 0 25.113 5.1616 36 7571
- 0.229743 25 5 ack 40 ------- 0 25.113 5.1616 36 7571
r 0.230383 25 5 ack 40 ------- 0 25.113 5.1616 34 7482
r 0.230415 25 5 ack 40 ------- 0 25.646 21.1130 0 7483
+ 0.230975 25 5 ack 40 ------- 0 25.113 5.1616 37 7620
- 0.230975 25 5 ack 40 ------- 0 25.113 5.1616 37 7620
r 0.231647 25 5 ack 40 ------- 0 25.113 5.1616 35 7524
+ 0.232207 25 5 ack 40 ------- 0 25.113 5.1616 38 7673
- 0.232207 25 5 ack 40 ------- 0 25.113 5.1616 38 7673
r 0.232879 25 5 ack 40 ------- 0 25.113 5.1616 36 7571
+ 0.233058 25 5 rtProtoDV 26 ------- 0 25.773 5.1623 -1 7705
- 0.233058 25 5 rtProtoDV 26 ------- 0 25.773 5.1623 -1 7705
+ 0.233681 25 5 tcp 1540 ------- 0 9.315 5.450 9 5367
- 0.233681 25 5 tcp 1540 ------- 0 9.315 5.450 9 5367
r 0.234111 25 5 ack 40 ------- 0 25.113 5.1616 37 7620
r 0.235343 25 5 ack 40 ------- 0 25.113 5.1616 38 7673
+ 0.235903 25 5 ack 40 ------- 0 25.113 5.1616 39 7788
- 0.235903 25 5 ack 40 ------- 0 25.113 5.1616 39 7788
+ 0.235935 25 5 ack 40 ------- 0 25.637 21.1121 0 7789
- 0.235935 25 5 ack 40 ------- 0 25.637 21.1121 0 7789
+ 0.236145 25 5 tcp 1540 ------- 0 9.315 5.450 10 5368
- 0.236145 25 5 tcp 1540 ------- 0 9.315 5.450 10 5368
r 0.236183 25 5 rtProtoDV 26 ------- 0 25.773 5.1623 -1 7705
+ 0.237167 25 5 ack 40 ------- 0 25.113 5.1616 40 7839
- 0.237377 25 5 ack 40 ------- 0 25.113 5.1616 40 7839
r 0.238017 25 5 tcp 1540 ------- 0 9.315 5.450 9 5367
+ 0.238399 25 5 ack 40 ------- 0 25.113 5.1616 41 7890
- 0.238399 25 5 ack 40 ------- 0 25.113 5.1616 41 7890
r 0.239039 25 5 ack 40 ------- 0 25.113 5.1616 39 7788
r 0.239071 25 5 ack 40 ------- 0 25.637 21.1121 0 7789
+ 0.239631 25 5 ack 40 ------- 0 25.113 5.1616 42 7917
- 0.239631 25 5 ack 40 ------- 0 25.113 5.1616 42 7917
r 0.240481 25 5 tcp 1540 ------- 0 9.315 5.450 10 5368
r 0.240513 25 5 ack 40 ------- 0 25.113 5.1616 40 7839
+ 0.240863 25 5 ack 40 ------- 0 25.113 5.1616 43 7960
- 0.240863 25 5 ack 40 ------- 0 25.113 5.1616 43 7960
r 0.241535 25 5 ack 40 ------- 0 25.113 5.1616 41 7890
+ 0.242095 25 5 ack 40 ------- 0 25.113 5.1616 44 8015
- 0.242095 25 5 ack 40 ------- 0 25.113 5.1616 44 8015
r 0.242767 25 5 ack 40 ------- 0 25.113 5.1616 42 7917
+ 0.243327 25 5 ack 40 ------- 0 25.113 5.1616 45 8065
- 0.243327 25 5 ack 40 ------- 0 25.113 5.1616 45 8065
+ 0.243569 25 5 tcp 1540 ------- 0 9.315 5.450 11 5628
- 0.243569 25 5 tcp 1540 ------- 0 9.315 5.450 11 5628
r 0.243999 25 5 ack 40 ------- 0 25.113 5.1616 43 7960
+ 0.244559 25 5 ack 40 ------- 0 25.113 5.1616 46 8102
- 0.244801 25 5 ack 40 ------- 0 25.113 5.1616 46 8102
r 0.245231 25 5 ack 40 ------- 0 25.113 5.1616 44 8015
+ 0.245823 25 5 ack 40 ------- 0 25.113 5.1616 47 8137
- 0.245823 25 5 ack 40 ------- 0 25.113 5.1616 47 8137
+ 0.246033 25 5 tcp 1540 ------- 0 9.315 5.450 12 5629
- 0.246033 25 5 tcp 1540 ------- 0 9.315 5.450 12 5629
r 0.246463 25 5 ack 40 ------- 0 25.113 5.1616 45 8065
+ 0.247055 25 5 ack 40 ------- 0 25.113 5.1616 48 8176
- 0.247265 25 5 ack 40 ------- 0 25.113 5.1616 48 8176
r 0.247905 25 5 tcp 1540 ------- 0 9.315 5.450 11 5628
r 0.247937 25 5 ack 40 ------- 0 25.113 5.1616 46 8102
+ 0.248287 25 5 ack 40 ------- 0 25.113 5.1616 49 8214
- 0.248287 25 5 ack 40 ------- 0 25.113 5.1616 49 8214
r 0.248959 25 5 ack 40 ------- 0 25.113 5.1616 47 8137
+ 0.249551 25 5 ack 40 ------- 0 25.113 5.1616 50 8261
- 0.249551 25 5 ack 40 ------- 0 25.113 5.1616 50 8261
r 0.250369 25 5 tcp 1540 ------- 0 9.315 5.450 12 5629
r 0.250401 25 5 ack 40 ------- 0 25.113 5.1616 48 8176
+ 0.250783 25 5 ack 40 ------- 0 25.113 5.1616 51 8306
- 0.250783 25 5 ack 40 ------- 0 25.113 5.1616 51 8306
r 0.251423 25 5 ack 40 ------- 0 25.113 5.1616 49 8214
+ 0.252015 25 5 ack 40 ------- 0 25.113 5.1616 52 8359
- 0.252015 25 5 ack 40 ------- 0 25.113 5.1616 52 8359
r 0.252687 25 5 ack 40 ------- 0 25.113 5.1616 50 8261
+ 0.253247 25 5 ack 40 ------- 0 25.113 5.1616 53 8403
- 0.253247 25 5 ack 40 ------- 0 25.113 5.1616 53 8403
r 0.253919 25 5 ack 40 ------- 0 25.113 5.1616 51 8306
+ 0.254479 25 5 ack 40 ------- 0 25.113 5.1616 54 8439
- 0.254479 25 5 ack 40 ------- 0 25.113 5.1616 54 8439
r 0.255151 25 5 ack 40 ------- 0 25.113 5.1616 52 8359
+ 0.255711 25 5 ack 40 ------- 0 25.113 5.1616 55 8486
- 0.255711 25 5 ack 40 ------- 0 25.113 5.1616 55 8486
r 0.256383 25 5 ack 40 ------- 0 25.113 5.1616 53 8403
+ 0.256943 25 5 ack 40 ------- 0 25.113 5.1616 56 8528
- 0.256943 25 5 ack 40 ------- 0 25.113 5.1616 56 8528
r 0.257615 25 5 ack 40 ------- 0 25.113 5.1616 54 8439
+ 0.258175 25 5 ack 40 ------- 0 25.113 5.1616 57 8578
- 0.258175 25 5 ack 40 ------- 0 25.113 5.1616 57 8578
r 0.258847 25 5 ack 40 ------- 0 25.113 5.1616 55 8486
+ 0.259407 25 5 ack 40 ------- 0 25.113 5.1616 58 8617
- 0.259407 25 5 ack 40 ------- 0 25.113 5.1616 58 8617
+ 0.259585 25 5 tcp 1540 ------- 0 6.180 5.402 1 6405
- 0.259585 25 5 tcp 1540 ------- 0 6.180 5.402 1 6405
r 0.260079 25 5 ack 40 ------- 0 25.113 5.1616 56 8528
+ 0.260671 25 5 ack 40 ------- 0 25.113 5.1616 59 8659
+ 0.260817 25 5 tcp 1540 ------- 0 6.180 5.402 2 6406
- 0.260817 25 5 ack 40 ------- 0 25.113 5.1616 59 8659
- 0.260849 25 5 tcp 1540 ------- 0 6.180 5.402 2 6406
r 0.261311 25 5 ack 40 ------- 0 25.113 5.1616 57 8578
+ 0.261935 25 5 ack 40 ------- 0 25.113 5.1616 60 8708
+ 0.262049 25 5 tcp 1540 ------- 0 9.315 5.450 13 5673
- 0.262081 25 5 ack 40 ------- 0 25.113 5.1616 60 8708
- 0.262113 25 5 tcp 1540 ------- 0 9.315 5.450 13 5673
r 0.262543 25 5 ack 40 ------- 0 25.113 5.1616 58 8617
+ 0.263199 25 5 ack 40 ------- 0 25.113 5.1616 61 8763
- 0.263345 25 5 ack 40 ------- 0 25.113 5.1616 61 8763
r 0.263921 25 5 tcp 1540 ------- 0 6.180 5.402 1 6405
r 0.263953 25 5 ack 40 ------- 0 25.113 5.1616 59 8659
+ 0.264431 25 5 ack 40 ------- 0 25.113 5.1616 62 8806
- 0.264431 25 5 ack 40 ------- 0 25.113 5.1616 62 8806
+ 0.264513 25 5 tcp 1540 ------- 0 9.315 5.450 14 5674
- 0.264513 25 5 tcp 1540 ------- 0 9.315 5.450 14 5674
r 0.265185 25 5 tcp 1540 ------- 0 6.180 5.402 2 6406
r 0.265217 25 5 ack 40 ------- 0 25.113 5.1616 60 8708
+ 0.265663 25 5 ack 40 ------- 0 25.113 5.1616 63 8842
- 0.265745 25 5 ack 40 ------- 0 25.113 5.1616 63 8842
+ 0.265841 25 5 ack 40 ------- 0 6.430 5.1043 7 6671
- 0.265841 25 5 ack 40 ------- 0 6.430 5.1043 7 6671
+ 0.265905 25 5 ack 40 ------- 0 6.430 5.1043 8 6774
- 0.265905 25 5 ack 40 ------- 0 6.430 5.1043 8 6774
r 0.266449 25 5 tcp 1540 ------- 0 9.315 5.450 13 5673
r 0.266481 25 5 ack 40 ------- 0 25.113 5.1616 61 8763
+ 0.266895 25 5 ack 40 ------- 0 25.508 17.1412 3 8894
- 0.266895 25 5 ack 40 ------- 0 25.508 17.1412 3 8894
+ 0.267201 25 5 ack 40 ------- 0 6.430 5.1043 9 6839
- 0.267201 25 5 ack 40 ------- 0 6.430 5.1043 9 6839
+ 0.267233 25 5 ack 40 ------- 0 6.430 5.1043 10 6897
- 0.267233 25 5 ack 40 ------- 0 6.430 5.1043 10 6897
+ 0.267329 25 5 ack 40 ------- 0 6.430 5.1043 11 7121
- 0.267329 25 5 ack 40 ------- 0 6.430 5.1043 11 7121
+ 0.267361 25 5 ack 40 ------- 0 9.639 5.1123 1 6169
- 0.267361 25 5 ack 40 ------- 0 9.639 5.1123 1 6169
+ 0.267393 25 5 ack 40 ------- 0 9.639 5.1123 2 6205
- 0.267393 25 5 ack 40 ------- 0 9.639 5.1123 2 6205
+ 0.267425 25 5 ack 40 ------- 0 6.430 5.1043 12 7166
- 0.267425 25 5 ack 40 ------- 0 6.430 5.1043 12 7166
+ 0.267489 25 5 tcp 40 ------- 0 6.1370 22.791 0 7205
- 0.267489 25 5 tcp 40 ------- 0 6.1370 22.791 0 7205
r 0.267567 25 5 ack 40 ------- 0 25.113 5.1616 62 8806
+ 0.267585 25 5 tcp 40 ------- 0 6.1402 22.823 0 7342
- 0.267585 25 5 tcp 40 ------- 0 6.1402 22.823 0 7342
+ 0.267617 25 5 ack 40 ------- 0 6.479 5.1092 0 7551
- 0.267617 25 5 ack 40 ------- 0 6.479 5.1092 0 7551
+ 0.268127 25 5 ack 40 ------- 0 25.113 5.1616 64 8944
- 0.268127 25 5 ack 40 ------- 0 25.113 5.1616 64 8944
+ 0.268159 25 5 ack 40 ------- 0 25.105 5.1608 0 8945
- 0.268159 25 5 ack 40 ------- 0 25.105 5.1608 0 8945
+ 0.268849 25 5 tcp 1540 ------- 0 9.321 5.456 3 6396
- 0.268849 25 5 tcp 1540 ------- 0 9.321 5.456 3 6396
r 0.268849 25 5 tcp 1540 ------- 0 9.315 5.450 14 5674
+ 0.268881 25 5 ack 40 ------- 0 6.492 5.1105 0 7651
r 0.268881 25 5 ack 40 ------- 0 25.113 5.1616 63 8842
r 0.268977 25 5 ack 40 ------- 0 6.430 5.1043 7 6671
r 0.269041 25 5 ack 40 ------- 0 6.430 5.1043 8 6774
+ 0.269391 25 5 ack 40 ------- 0 25.113 5.1616 65 9002
r 0.270031 25 5 ack 40 ------- 0 25.508 17.1412 3 8894
- 0.270081 25 5 ack 40 ------- 0 6.492 5.1105 0 7651
+ 0.270113 25 5 tcp 1540 ------- 0 9.321 5.456 4 6397
- 0.270113 25 5 ack 40 ------- 0 25.113 5.1616 65 9002
- 0.270145 25 5 tcp 1540 ------- 0 9.321 5.456 4 6397
r 0.270337 25 5 ack 40 ------- 0 6.430 5.1043 9 6839
r 0.270369 25 5 ack 40 ------- 0 6.430 5.1043 10 6897
r 0.270465 25 5 ack 40 ------- 0 6.430 5.1043 11 7121
r 0.270497 25 5 ack 40 ------- 0 9.639 5.1123 1 6169
r 0.270529 25 5 ack 40 ------- 0 9.639 5.1123 2 6205
r 0.270561 25 5 ack 40 ------- 0 6.430 5.1043 12 7166
r 0.270625 25 5 tcp 40 ------- 0 6.1370 22.791 0 7205
+ 0.270655 25 5 ack 40 ------- 0 25.113 5.1616 66 9064
r 0.270721 25 5 tcp 40 ------- 0 6.1402 22.823 0 7342
r 0.270753 25 5 ack 40 ------- 0 6.479 5.1092 0 7551
r 0.271263 25 5 ack 40 ------- 0 25.113 5.1616 64 8944
r 0.271295 25 5 ack 40 ------- 0 25.105 5.1608 0 8945
- 0.271377 25 5 ack 40 ------- 0 25.113 5.1616 66 9064
+ 0.271473 25 5 tcp 40 ------- 0 6.179 5.401 0 7941
- 0.271473 25 5 tcp 40 ------- 0 6.179 5.401 0 7941
+ 0.271887 25 5 ack 40 ------- 0 25.113 5.1616 67 9125
- 0.271887 25 5 ack 40 ------- 0 25.113 5.1616 67 9125
+ 0.271919 25 5 ack 40 ------- 0 25.651 21.1135 0 9127
- 0.271919 25 5 ack 40 ------- 0 25.651 21.1135 0 9127
+ 0.273183 25 5 ack 40 ------- 0 25.113 5.1616 68 9167
- 0.273183 25 5 ack 40 ------- 0 25.113 5.1616 68 9167
r 0.273185 25 5 tcp 1540 ------- 0 9.321 5.456 3 6396
r 0.273217 25 5 ack 40 ------- 0 6.492 5.1105 0 7651
r 0.273249 25 5 ack 40 ------- 0 25.113 5.1616 65 9002
+ 0.274415 25 5 ack 40 ------- 0 25.113 5.1616 69 9239
- 0.274415 25 5 ack 40 ------- 0 25.113 5.1616 69 9239
r 0.274481 25 5 tcp 1540 ------- 0 9.321 5.456 4 6397
r 0.274513 25 5 ack 40 ------- 0 25.113 5.1616 66 9064
r 0.274609 25 5 tcp 40 ------- 0 6.179 5.401 0 7941
r 0.275023 25 5 ack 40 ------- 0 25.113 5.1616 67 9125
r 0.275055 25 5 ack 40 ------- 0 25.651 21.1135 0 9127
+ 0.275169 25 5 tcp 1540 ------- 0 9.321 5.456 5 6707
- 0.275169 25 5 tcp 1540 ------- 0 9.321 5.456 5 6707
+ 0.275201 25 5 ack 40 ------- 0 6.425 5.1038 1 7996
+ 0.275647 25 5 ack 40 ------- 0 25.113 5.1616 70 9301
r 0.276319 25 5 ack 40 ------- 0 25.113 5.1616 68 9167
- 0.276401 25 5 ack 40 ------- 0 6.425 5.1038 1 7996
+ 0.276433 25 5 tcp 1540 ------- 0 9.321 5.456 6 6708
- 0.276433 25 5 ack 40 ------- 0 25.113 5.1616 70 9301
+ 0.276465 25 5 ack 40 ------- 0 6.425 5.1038 2 8055
- 0.276465 25 5 tcp 1540 ------- 0 9.321 5.456 6 6708
+ 0.276879 25 5 ack 40 ------- 0 25.113 5.1616 71 9341
r 0.277551 25 5 ack 40 ------- 0 25.113 5.1616 69 9239
- 0.277697 25 5 ack 40 ------- 0 6.425 5.1038 2 8055
- 0.277729 25 5 ack 40 ------- 0 25.113 5.1616 71 9341
+ 0.278111 25 5 ack 40 ------- 0 25.113 5.1616 72 9397
- 0.278111 25 5 ack 40 ------- 0 25.113 5.1616 72 9397
+ 0.279343 25 5 ack 40 ------- 0 25.113 5.1616 73 9468
- 0.279343 25 5 ack 40 ------- 0 25.113 5.1616 73 9468
r 0.279505 25 5 tcp 1540 ------- 0 9.321 5.456 5 6707
r 0.279537 25 5 ack 40 ------- 0 6.425 5.1038 1 7996
r 0.279569 25 5 ack 40 ------- 0 25.113 5.1616 70 9301
+ 0.280575 25 5 ack 40 ------- 0 25.508 17.1412 4 9505
- 0.280575 25 5 ack 40 ------- 0 25.508 17.1412 4 9505
r 0.280801 25 5 tcp 1540 ------- 0 9.321 5.456 6 6708
r 0.280833 25 5 ack 40 ------- 0 6.425 5.1038 2 8055
r 0.280865 25 5 ack 40 ------- 0 25.113 5.1616 71 9341
r 0.281247 25 5 ack 40 ------- 0 25.113 5.1616 72 9397
+ 0.281807 25 5 ack 40 ------- 0 25.113 5.1616 74 9553
- 0.281807 25 5 ack 40 ------- 0 25.113 5.1616 74 9553
r 0.282479 25 5 ack 40 ------- 0 25.113 5.1616 73 9468
+ 0.282977 25 5 tcp 40 ------- 0 6.1406 22.827 0 8606
- 0.282977 25 5 tcp 40 ------- 0 6.1406 22.827 0 8606
+ 0.283039 25 5 ack 40 ------- 0 25.113 5.1616 75 9618
- 0.283039 25 5 ack 40 ------- 0 25.113 5.1616 75 9618
r 0.283711 25 5 ack 40 ------- 0 25.508 17.1412 4 9505
+ 0.284271 25 5 ack 40 ------- 0 25.113 5.1616 76 9669
- 0.284271 25 5 ack 40 ------- 0 25.113 5.1616 76 9669
r 0.284943 25 5 ack 40 ------- 0 25.113 5.1616 74 9553
+ 0.285503 25 5 ack 40 ------- 0 25.113 5.1616 77 9716
- 0.285503 25 5 ack 40 ------- 0 25.113 5.1616 77 9716
+ 0.285569 25 5 ack 40 ------- 0 6.890 22.273 0 8995
- 0.285569 25 5 ack 40 ------- 0 6.890 22.273 0 8995
+ 0.285601 25 5 tcp 40 ------- 0 6.1390 22.811 0 9044
- 0.285601 25 5 tcp 40 ------- 0 6.1390 22.811 0 9044
r 0.286113 25 5 tcp 40 ------- 0 6.1406 22.827 0 8606
r 0.286175 25 5 ack 40 ------- 0 25.113 5.1616 75 9618
+ 0.286767 25 5 ack 40 ------- 0 25.508 17.1412 5 9748
- 0.286767 25 5 ack 40 ------- 0 25.508 17.1412 5 9748
r 0.287407 25 5 ack 40 ------- 0 25.113 5.1616 76 9669
+ 0.287999 25 5 ack 40 ------- 0 25.113 5.1616 78 9798
- 0.287999 25 5 ack 40 ------- 0 25.113 5.1616 78 9798
r 0.288639 25 5 ack 40 ------- 0 25.113 5.1616 77 9716
r 0.288705 25 5 ack 40 ------- 0 6.890 22.273 0 8995
r 0.288737 25 5 tcp 40 ------- 0 6.1390 22.811 0 9044
+ 0.289231 25 5 ack 40 ------- 0 25.508 17.1412 6 9828
- 0.289231 25 5 ack 40 ------- 0 25.508 17.1412 6 9828
+ 0.289361 25 5 tcp 1540 ------- 0 9.302 5.437 3 7733
- 0.289361 25 5 tcp 1540 ------- 0 9.302 5.437 3 7733
r 0.289903 25 5 ack 40 ------- 0 25.508 17.1412 5 9748
+ 0.290495 25 5 ack 40 ------- 0 25.113 5.1616 79 9871
+ 0.290593 25 5 tcp 1540 ------- 0 9.302 5.437 4 7734
- 0.290593 25 5 ack 40 ------- 0 25.113 5.1616 79 9871
- 0.290625 25 5 tcp 1540 ------- 0 9.302 5.437 4 7734
r 0.291135 25 5 ack 40 ------- 0 25.113 5.1616 78 9798
+ 0.291759 25 5 ack 40 ------- 0 25.113 5.1616 80 9915
- 0.291857 25 5 ack 40 ------- 0 25.113 5.1616 80 9915
r 0.292367 25 5 ack 40 ------- 0 25.508 17.1412 6 9828
+ 0.293023 25 5 ack 40 ------- 0 25.113 5.1616 81 9965
- 0.293023 25 5 ack 40 ------- 0 25.113 5.1616 81 9965
r 0.293697 25 5 tcp 1540 ------- 0 9.302 5.437 3 7733
r 0.293729 25 5 ack 40 ------- 0 25.113 5.1616 79 9871
+ 0.294255 25 5 ack 40 ------- 0 25.113 5.1616 82 10029
- 0.294255 25 5 ack 40 ------- 0 25.113 5.1616 82 10029
r 0.294961 25 5 tcp 1540 ------- 0 9.302 5.437 4 7734
r 0.294993 25 5 ack 40 ------- 0 25.113 5.1616 80 9915
+ 0.295519 25 5 ack 40 ------- 0 25.113 5.1616 83 10081
- 0.295519 25 5 ack 40 ------- 0 25.113 5.1616 83 10081
r 0.296159 25 5 ack 40 ------- 0 25.113 5.1616 81 9965
+ 0.296785 25 5 tcp 40 ------- 0 9.314 5.449 0 7760
- 0.296785 25 5 tcp 40 ------- 0 9.314 5.449 0 7760
r 0.297391 25 5 ack 40 ------- 0 25.113 5.1616 82 10029
r 0.298655 25 5 ack 40 ------- 0 25.113 5.1616 83 10081
r 0.299921 25 5 tcp 40 ------- 0 9.314 5.449 0 7760
+ 0.311697 25 5 tcp 1540 ------- 0 9.315 5.450 15 8559
- 0.311697 25 5 tcp 1540 ------- 0 9.315 5.450 15 8559
r 0.316033 25 5 tcp 1540 ------- 0 9.315 5.450 15 8559
+ 0.317857 25 5 tcp 1540 ------- 0 9.315 5.450 16 8560
- 0.317857 25 5 tcp 1540 ------- 0 9.315 5.450 16 8560
+ 0.319089 25 5 tcp 1540 ---A--- 0 9.303 5.438 1 8621
- 0.319089 25 5 tcp 1540 ---A--- 0 9.303 5.438 1 8621
+ 0.320159 25 5 ack 40 ------- 0 25.113 5.1616 84 11110
- 0.320321 25 5 ack 40 ------- 0 25.113 5.1616 84 11110
+ 0.321391 25 5 ack 40 ------- 0 25.105 5.1608 1 11171
- 0.321391 25 5 ack 40 ------- 0 25.105 5.1608 1 11171
r 0.322193 25 5 tcp 1540 ------- 0 9.315 5.450 16 8560
+ 0.322623 25 5 ack 40 ------- 0 25.105 5.1608 2 11211
- 0.322623 25 5 ack 40 ------- 0 25.105 5.1608 2 11211
+ 0.323041 25 5 ack 40 ------- 0 6.426 5.1039 0 9953
- 0.323041 25 5 ack 40 ------- 0 6.426 5.1039 0 9953
r 0.323425 25 5 tcp 1540 ---A--- 0 9.303 5.438 1 8621
r 0.323457 25 5 ack 40 ------- 0 25.113 5.1616 84 11110
+ 0.324273 25 5 tcp 1540 ------- 0 9.315 5.450 17 8751
- 0.324273 25 5 tcp 1540 ------- 0 9.315 5.450 17 8751
r 0.324527 25 5 ack 40 ------- 0 25.105 5.1608 1 11171
+ 0.325505 25 5 tcp 1540 ------- 0 9.315 5.450 18 8752
- 0.325505 25 5 tcp 1540 ------- 0 9.315 5.450 18 8752