+ 0.00747 9 10 rtProtoDV 26 ------- 0 9.1472 10.1115 -1 175
- 0.00747 9 10 rtProtoDV 26 ------- 0 9.1472 10.1115 -1 175
r 0.009403 9 10 rtProtoDV 26 ------- 0 9.1472 10.1115 -1 175
+ 0.009512 9 10 rtProtoDV 26 ------- 0 9.1472 10.1115 -1 257
- 0.009512 9 10 rtProtoDV 26 ------- 0 9.1472 10.1115 -1 257
+ 0.01111 9 10 rtProtoDV 26 ------- 0 9.1472 10.1115 -1 375
- 0.01111 9 10 rtProtoDV 26 ------- 0 9.1472 10.1115 -1 375
r 0.011445 9 10 rtProtoDV 26 ------- 0 9.1472 10.1115 -1 257
+ 0.011628 9 10 rtProtoDV 26 ------- 0 9.1472 10.1115 -1 397
- 0.011628 9 10 rtProtoDV 26 ------- 0 9.1472 10.1115 -1 397
+ 0.01242 9 10 rtProtoDV 26 ------- 0 9.1472 10.1115 -1 443
- 0.01242 9 10 rtProtoDV 26 ------- 0 9.1472 10.1115 -1 443
r 0.013044 9 10 rtProtoDV 26 ------- 0 9.1472 10.1115 -1 375
+ 0.013239 9 10 rtProtoDV 26 ------- 0 9.1472 10.1115 -1 481
- 0.013239 9 10 rtProtoDV 26 ------- 0 9.1472 10.1115 -1 481
r 0.013562 9 10 rtProtoDV 26 ------- 0 9.1472 10.1115 -1 397
+ 0.013626 9 10 rtProtoDV 26 ------- 0 9.1472 10.1115 -1 498
- 0.013626 9 10 rtProtoDV 26 ------- 0 9.1472 10.1115 -1 498
r 0.014354 9 10 rtProtoDV 26 ------- 0 9.1472 10.1115 -1 443
r 0.015172 9 10 rtProtoDV 26 ------- 0 9.1472 10.1115 -1 481
+ 0.01546 9 10 rtProtoDV 26 ------- 0 9.1472 10.1115 -1 574
- 0.01546 9 10 rtProtoDV 26 ------- 0 9.1472 10.1115 -1 574
+ 0.015482 9 10 rtProtoDV 26 ------- 0 9.1472 10.1115 -1 576
- 0.015543 9 10 rtProtoDV 26 ------- 0 9.1472 10.1115 -1 576
r 0.015559 9 10 rtProtoDV 26 ------- 0 9.1472 10.1115 -1 498
r 0.017393 9 10 rtProtoDV 26 ------- 0 9.1472 10.1115 -1 574
r 0.017476 9 10 rtProtoDV 26 ------- 0 9.1472 10.1115 -1 576
+ 0.019076 9 10 rtProtoDV 26 ------- 0 9.1472 10.1115 -1 713
- 0.019076 9 10 rtProtoDV 26 ------- 0 9.1472 10.1115 -1 713
+ 0.020945 9 10 ack 40 ------- 0 9.442 0.870 0 766
- 0.020945 9 10 ack 40 ------- 0 9.442 0.870 0 766
r 0.021009 9 10 rtProtoDV 26 ------- 0 9.1472 10.1115 -1 713
+ 0.022867 9 10 rtProtoDV 26 ------- 0 9.1472 10.1115 -1 822
- 0.022867 9 10 rtProtoDV 26 ------- 0 9.1472 10.1115 -1 822
r 0.022923 9 10 ack 40 ------- 0 9.442 0.870 0 766
r 0.024801 9 10 rtProtoDV 26 ------- 0 9.1472 10.1115 -1 822
+ 0.032312 9 10 tcp 40 ------- 0 9.242 3.337 0 1047
- 0.032312 9 10 tcp 40 ------- 0 9.242 3.337 0 1047
r 0.03429 9 10 tcp 40 ------- 0 9.242 3.337 0 1047
+ 0.046161 9 10 ack 40 ------- 0 9.442 0.870 1 1388
- 0.046161 9 10 ack 40 ------- 0 9.442 0.870 1 1388
+ 0.046845 9 10 tcp 40 ------- 0 9.151 2.284 0 1399
- 0.046845 9 10 tcp 40 ------- 0 9.151 2.284 0 1399
+ 0.04729 9 10 tcp 40 ------- 0 9.251 4.331 0 1416
- 0.04729 9 10 tcp 40 ------- 0 9.251 4.331 0 1416
r 0.048139 9 10 ack 40 ------- 0 9.442 0.870 1 1388
r 0.048823 9 10 tcp 40 ------- 0 9.151 2.284 0 1399
r 0.049269 9 10 tcp 40 ------- 0 9.251 4.331 0 1416
+ 0.050264 9 10 ack 40 ------- 0 25.277 10.1084 0 1186
- 0.050264 9 10 ack 40 ------- 0 25.277 10.1084 0 1186
+ 0.051089 9 10 ack 40 ------- 0 9.442 0.870 2 1512
- 0.051089 9 10 ack 40 ------- 0 9.442 0.870 2 1512
+ 0.051217 9 10 ack 40 ------- 0 9.791 16.228 0 1516
- 0.051217 9 10 ack 40 ------- 0 9.791 16.228 0 1516
r 0.052242 9 10 ack 40 ------- 0 25.277 10.1084 0 1186
r 0.053067 9 10 ack 40 ------- 0 9.442 0.870 2 1512
r 0.053195 9 10 ack 40 ------- 0 9.791 16.228 0 1516
+ 0.061308 9 10 tcp 40 ------- 0 6.1020 11.665 0 1657
- 0.061308 9 10 tcp 40 ------- 0 6.1020 11.665 0 1657
r 0.063286 9 10 tcp 40 ------- 0 6.1020 11.665 0 1657
+ 0.064076 9 10 tcp 1540 ------- 0 9.151 2.284 1 1864
- 0.064076 9 10 tcp 1540 ------- 0 9.151 2.284 1 1864
+ 0.064076 9 10 tcp 1540 ------- 0 9.151 2.284 2 1865
+ 0.064204 9 10 ack 40 ------- 0 9.604 3.1026 0 1871
+ 0.064332 9 10 ack 40 ------- 0 9.711 13.206 0 1872
+ 0.06446 9 10 tcp 1540 ------- 0 9.242 3.337 1 1877
+ 0.06446 9 10 tcp 1540 ------- 0 9.242 3.337 2 1878
+ 0.064588 9 10 ack 40 ------- 0 9.576 3.998 0 1881
- 0.069004 9 10 tcp 1540 ------- 0 9.151 2.284 2 1865
+ 0.06943 9 10 tcp 40 ------- 0 9.5 0.183 0 2024
+ 0.069507 9 10 ack 40 ------- 0 9.575 3.997 0 2028
r 0.070855 9 10 tcp 1540 ------- 0 9.151 2.284 1 1864
+ 0.072494 9 10 tcp 40 ------- 0 6.1015 11.660 0 1899
- 0.073932 9 10 ack 40 ------- 0 9.604 3.1026 0 1871
- 0.07406 9 10 ack 40 ------- 0 9.711 13.206 0 1872
- 0.074188 9 10 tcp 1540 ------- 0 9.242 3.337 1 1877
+ 0.074228 9 10 tcp 40 ------- 0 20.308 10.731 0 1523
+ 0.074823 9 10 tcp 40 ------- 0 9.245 3.340 0 2213
+ 0.075651 9 10 tcp 40 ------- 0 9.171 2.304 0 2236
r 0.075783 9 10 tcp 1540 ------- 0 9.151 2.284 2 1865
r 0.075911 9 10 ack 40 ------- 0 9.604 3.1026 0 1871
r 0.076039 9 10 ack 40 ------- 0 9.711 13.206 0 1872
+ 0.076263 9 10 tcp 40 ------- 0 6.1313 18.396 0 2105
+ 0.077427 9 10 ack 40 ------- 0 25.260 10.1067 0 1913
d 0.077427 9 10 ack 40 ------- 0 25.260 10.1067 0 1913
- 0.079116 9 10 tcp 1540 ------- 0 9.242 3.337 2 1878
+ 0.080763 9 10 tcp 40 ------- 0 9.2 0.180 0 2421
r 0.080967 9 10 tcp 1540 ------- 0 9.242 3.337 1 1877
+ 0.081267 9 10 tcp 1540 ------- 0 9.151 2.284 3 2440
d 0.081267 9 10 tcp 1540 ------- 0 9.151 2.284 3 2440
+ 0.081267 9 10 tcp 1540 ------- 0 9.151 2.284 4 2441
d 0.081267 9 10 tcp 1540 ------- 0 9.151 2.284 4 2441
- 0.084044 9 10 ack 40 ------- 0 9.576 3.998 0 1881
- 0.084172 9 10 tcp 40 ------- 0 9.5 0.183 0 2024
- 0.0843 9 10 ack 40 ------- 0 9.575 3.997 0 2028
- 0.084428 9 10 tcp 40 ------- 0 6.1015 11.660 0 1899
- 0.084556 9 10 tcp 40 ------- 0 20.308 10.731 0 1523
- 0.084684 9 10 tcp 40 ------- 0 9.245 3.340 0 2213
- 0.084812 9 10 tcp 40 ------- 0 9.171 2.304 0 2236
- 0.08494 9 10 tcp 40 ------- 0 6.1313 18.396 0 2105
- 0.085068 9 10 tcp 40 ------- 0 9.2 0.180 0 2421
r 0.085895 9 10 tcp 1540 ------- 0 9.242 3.337 2 1878
r 0.086023 9 10 ack 40 ------- 0 9.576 3.998 0 1881
r 0.086151 9 10 tcp 40 ------- 0 9.5 0.183 0 2024
r 0.086279 9 10 ack 40 ------- 0 9.575 3.997 0 2028
r 0.086407 9 10 tcp 40 ------- 0 6.1015 11.660 0 1899
r 0.086535 9 10 tcp 40 ------- 0 20.308 10.731 0 1523
r 0.086663 9 10 tcp 40 ------- 0 9.245 3.340 0 2213
r 0.086791 9 10 tcp 40 ------- 0 9.171 2.304 0 2236
r 0.086919 9 10 tcp 40 ------- 0 6.1313 18.396 0 2105
r 0.087047 9 10 tcp 40 ------- 0 9.2 0.180 0 2421
+ 0.088234 9 10 ack 40 ------- 0 25.277 10.1084 1 2161
- 0.088234 9 10 ack 40 ------- 0 25.277 10.1084 1 2161
+ 0.089458 9 10 tcp 40 ------- 0 9.1221 19.908 0 2713
- 0.089458 9 10 tcp 40 ------- 0 9.1221 19.908 0 2713
r 0.090212 9 10 ack 40 ------- 0 25.277 10.1084 1 2161
+ 0.090323 9 10 tcp 40 ------- 0 9.9 0.187 0 2747
- 0.090323 9 10 tcp 40 ------- 0 9.9 0.187 0 2747
r 0.091436 9 10 tcp 40 ------- 0 9.1221 19.908 0 2713
+ 0.091442 9 10 ack 40 ------- 0 9.442 0.870 3 2780
- 0.091442 9 10 ack 40 ------- 0 9.442 0.870 3 2780
r 0.092301 9 10 tcp 40 ------- 0 9.9 0.187 0 2747
r 0.093421 9 10 ack 40 ------- 0 9.442 0.870 3 2780
+ 0.09637 9 10 ack 40 ------- 0 9.442 0.870 4 2915
- 0.09637 9 10 ack 40 ------- 0 9.442 0.870 4 2915
+ 0.096754 9 10 tcp 1540 ------- 0 9.151 2.284 5 2927
- 0.096754 9 10 tcp 1540 ------- 0 9.151 2.284 5 2927
+ 0.096754 9 10 tcp 1540 ------- 0 9.151 2.284 6 2928
r 0.098349 9 10 ack 40 ------- 0 9.442 0.870 4 2915
- 0.101682 9 10 tcp 1540 ------- 0 9.151 2.284 6 2928
r 0.103533 9 10 tcp 1540 ------- 0 9.151 2.284 5 2927
r 0.108461 9 10 tcp 1540 ------- 0 9.151 2.284 6 2928
+ 0.111666 9 10 ack 40 ------- 0 9.791 16.228 1 3439
- 0.111666 9 10 ack 40 ------- 0 9.791 16.228 1 3439
r 0.113645 9 10 ack 40 ------- 0 9.791 16.228 1 3439
+ 0.113655 9 10 tcp 1540 ------- 0 6.1020 11.665 1 3104
- 0.113655 9 10 tcp 1540 ------- 0 6.1020 11.665 1 3104
+ 0.114919 9 10 ack 40 ------- 0 25.277 10.1084 2 2925
+ 0.116594 9 10 ack 40 ------- 0 9.442 0.870 5 3565
+ 0.116722 9 10 ack 40 ------- 0 9.714 13.209 0 3572
- 0.118583 9 10 ack 40 ------- 0 25.277 10.1084 2 2925
- 0.118711 9 10 ack 40 ------- 0 9.442 0.870 5 3565
- 0.118839 9 10 ack 40 ------- 0 9.714 13.209 0 3572
r 0.120433 9 10 tcp 1540 ------- 0 6.1020 11.665 1 3104
r 0.120561 9 10 ack 40 ------- 0 25.277 10.1084 2 2925
r 0.120689 9 10 ack 40 ------- 0 9.442 0.870 5 3565
r 0.120817 9 10 ack 40 ------- 0 9.714 13.209 0 3572
+ 0.12165 9 10 ack 40 ------- 0 9.442 0.870 6 3726
- 0.12165 9 10 ack 40 ------- 0 9.442 0.870 6 3726
r 0.123629 9 10 ack 40 ------- 0 9.442 0.870 6 3726
+ 0.126578 9 10 ack 40 ------- 0 9.791 16.228 2 3905
- 0.126578 9 10 ack 40 ------- 0 9.791 16.228 2 3905
+ 0.126706 9 10 tcp 1540 ------- 0 9.251 4.331 1 3913
+ 0.126706 9 10 tcp 1540 ------- 0 9.251 4.331 2 3914
- 0.126706 9 10 tcp 1540 ------- 0 9.251 4.331 1 3913
+ 0.126834 9 10 tcp 1540 ------- 0 9.171 2.304 1 3918
+ 0.126834 9 10 tcp 1540 ------- 0 9.171 2.304 2 3919
+ 0.12709 9 10 ack 40 ------- 0 9.856 16.293 0 3929
r 0.128557 9 10 ack 40 ------- 0 9.791 16.228 2 3905
- 0.131634 9 10 tcp 1540 ------- 0 9.251 4.331 2 3914
r 0.133485 9 10 tcp 1540 ------- 0 9.251 4.331 1 3913
+ 0.134006 9 10 tcp 40 ------- 0 9.250 4.330 0 4128
+ 0.135537 9 10 tcp 40 ------- 0 9.187 2.320 0 4182
- 0.136562 9 10 tcp 1540 ------- 0 9.171 2.304 1 3918
+ 0.137202 9 10 ack 40 ------- 0 9.413 0.841 0 4230
r 0.138413 9 10 tcp 1540 ------- 0 9.251 4.331 2 3914
+ 0.14041 9 10 ack 40 ------- 0 9.716 13.211 0 4331
+ 0.140469 9 10 tcp 1540 ------- 0 6.1015 11.660 1 4145
- 0.14149 9 10 tcp 1540 ------- 0 9.171 2.304 2 3919
+ 0.141701 9 10 tcp 1540 ------- 0 6.1015 11.660 2 4146
r 0.143341 9 10 tcp 1540 ------- 0 9.171 2.304 1 3918
- 0.146418 9 10 ack 40 ------- 0 9.856 16.293 0 3929
- 0.146546 9 10 tcp 40 ------- 0 9.250 4.330 0 4128
+ 0.146625 9 10 ack 40 ------- 0 9.538 3.960 0 4550
- 0.146674 9 10 tcp 40 ------- 0 9.187 2.320 0 4182
- 0.146802 9 10 ack 40 ------- 0 9.413 0.841 0 4230
- 0.14693 9 10 ack 40 ------- 0 9.716 13.211 0 4331
- 0.147058 9 10 tcp 1540 ------- 0 6.1015 11.660 1 4145
+ 0.14718 9 10 ack 40 ------- 0 25.277 10.1084 3 4180
r 0.148269 9 10 tcp 1540 ------- 0 9.171 2.304 2 3919
r 0.148397 9 10 ack 40 ------- 0 9.856 16.293 0 3929
r 0.148525 9 10 tcp 40 ------- 0 9.250 4.330 0 4128
r 0.148653 9 10 tcp 40 ------- 0 9.187 2.320 0 4182
+ 0.148691 9 10 tcp 1540 ------- 0 9.151 2.284 7 4630
r 0.148781 9 10 ack 40 ------- 0 9.413 0.841 0 4230
r 0.148909 9 10 ack 40 ------- 0 9.716 13.211 0 4331
+ 0.15008 9 10 tcp 40 ------- 0 6.1014 11.659 0 4437
- 0.151986 9 10 tcp 1540 ------- 0 6.1015 11.660 2 4146
r 0.153837 9 10 tcp 1540 ------- 0 6.1015 11.660 1 4145
+ 0.15384 9 10 tcp 1540 ------- 0 6.1313 18.396 1 4571
+ 0.155072 9 10 tcp 1540 ------- 0 6.1313 18.396 2 4572
- 0.156914 9 10 ack 40 ------- 0 9.538 3.960 0 4550
- 0.157042 9 10 ack 40 ------- 0 25.277 10.1084 3 4180
- 0.15717 9 10 tcp 1540 ------- 0 9.151 2.284 7 4630
+ 0.15815 9 10 ack 40 ------- 0 9.604 3.1026 1 4944
r 0.158765 9 10 tcp 1540 ------- 0 6.1015 11.660 2 4146
r 0.158893 9 10 ack 40 ------- 0 9.538 3.960 0 4550
r 0.159021 9 10 ack 40 ------- 0 25.277 10.1084 3 4180
- 0.162098 9 10 tcp 40 ------- 0 6.1014 11.659 0 4437
- 0.162226 9 10 tcp 1540 ------- 0 6.1313 18.396 1 4571
+ 0.163078 9 10 ack 40 ------- 0 9.604 3.1026 2 5134
+ 0.163289 9 10 tcp 1540 ------- 0 9.5 0.183 1 5148
+ 0.163289 9 10 tcp 1540 ------- 0 9.5 0.183 2 5149
+ 0.163417 9 10 tcp 1540 ------- 0 9.2 0.180 1 5163
+ 0.163417 9 10 tcp 1540 ------- 0 9.2 0.180 2 5164
+ 0.163545 9 10 tcp 1540 ------- 0 9.242 3.337 3 5169
+ 0.163545 9 10 tcp 1540 ------- 0 9.242 3.337 4 5170
+ 0.163673 9 10 tcp 1540 ------- 0 9.9 0.187 1 5174
d 0.163673 9 10 tcp 1540 ------- 0 9.9 0.187 1 5174
+ 0.163673 9 10 tcp 1540 ------- 0 9.9 0.187 2 5175
d 0.163673 9 10 tcp 1540 ------- 0 9.9 0.187 2 5175
r 0.163949 9 10 tcp 1540 ------- 0 9.151 2.284 7 4630
r 0.164077 9 10 tcp 40 ------- 0 6.1014 11.659 0 4437
- 0.167154 9 10 tcp 1540 ------- 0 6.1313 18.396 2 4572
+ 0.167658 9 10 ack 40 ------- 0 25.277 10.1084 4 4639
r 0.169005 9 10 tcp 1540 ------- 0 6.1313 18.396 1 4571
+ 0.169461 9 10 tcp 40 ------- 0 9.1208 19.895 0 5391
d 0.169461 9 10 tcp 40 ------- 0 9.1208 19.895 0 5391
- 0.172082 9 10 ack 40 ------- 0 9.604 3.1026 1 4944
- 0.17221 9 10 ack 40 ------- 0 9.604 3.1026 2 5134
- 0.172338 9 10 tcp 1540 ------- 0 9.5 0.183 1 5148
+ 0.17297 9 10 tcp 40 ------- 0 9.1056 12.470 0 5578
r 0.173933 9 10 tcp 1540 ------- 0 6.1313 18.396 2 4572
r 0.174061 9 10 ack 40 ------- 0 9.604 3.1026 1 4944
r 0.174189 9 10 ack 40 ------- 0 9.604 3.1026 2 5134
- 0.177266 9 10 tcp 1540 ------- 0 9.5 0.183 2 5149
+ 0.178457 9 10 ack 40 ------- 0 9.442 0.870 7 5765
+ 0.178792 9 10 tcp 40 ------- 0 9.1051 12.465 0 5776
r 0.179117 9 10 tcp 1540 ------- 0 9.5 0.183 1 5148
- 0.182194 9 10 tcp 1540 ------- 0 9.2 0.180 1 5163
+ 0.183385 9 10 ack 40 ------- 0 9.442 0.870 8 5919
+ 0.183513 9 10 ack 40 ------- 0 9.906 18.145 0 5925
r 0.184045 9 10 tcp 1540 ------- 0 9.5 0.183 2 5149
+ 0.18486 9 10 tcp 40 ------- 0 9.0 0.178 0 5966
d 0.18486 9 10 tcp 40 ------- 0 9.0 0.178 0 5966
- 0.187122 9 10 tcp 1540 ------- 0 9.2 0.180 2 5164
+ 0.188697 9 10 ack 40 ------- 0 9.442 0.870 9 6083
r 0.188973 9 10 tcp 1540 ------- 0 9.2 0.180 1 5163
+ 0.191459 9 10 tcp 40 ------- 0 9.1142 16.586 0 6197
d 0.191459 9 10 tcp 40 ------- 0 9.1142 16.586 0 6197
- 0.19205 9 10 tcp 1540 ------- 0 9.242 3.337 3 5169
+ 0.193625 9 10 ack 40 ------- 0 9.442 0.870 10 6256
+ 0.193753 9 10 ack 40 ------- 0 9.481 2.850 0 6259
d 0.193753 9 10 ack 40 ------- 0 9.481 2.850 0 6259
+ 0.193843 9 10 tcp 40 ------- 0 9.181 2.314 0 6262
d 0.193843 9 10 tcp 40 ------- 0 9.181 2.314 0 6262
+ 0.193881 9 10 tcp 1540 ------- 0 9.242 3.337 5 6264
d 0.193881 9 10 tcp 1540 ------- 0 9.242 3.337 5 6264
+ 0.193881 9 10 tcp 1540 ------- 0 9.242 3.337 6 6265
d 0.193881 9 10 tcp 1540 ------- 0 9.242 3.337 6 6265
r 0.193901 9 10 tcp 1540 ------- 0 9.2 0.180 2 5164
- 0.196978 9 10 tcp 1540 ------- 0 9.242 3.337 4 5170
+ 0.198809 9 10 ack 40 ------- 0 9.576 3.998 1 6478
r 0.198829 9 10 tcp 1540 ------- 0 9.242 3.337 3 5169
+ 0.201078 9 10 ack 40 ------- 0 25.277 10.1084 5 6090
d 0.201078 9 10 ack 40 ------- 0 25.277 10.1084 5 6090
- 0.201906 9 10 ack 40 ------- 0 25.277 10.1084 4 4639
+ 0.202028 9 10 ack 40 ------- 0 25.277 10.1084 6 6150
- 0.202034 9 10 tcp 40 ------- 0 9.1056 12.470 0 5578
+ 0.20206 9 10 ack 40 ------- 0 25.265 10.1072 0 6151
- 0.202162 9 10 ack 40 ------- 0 9.442 0.870 7 5765
- 0.20229 9 10 tcp 40 ------- 0 9.1051 12.465 0 5776
- 0.202418 9 10 ack 40 ------- 0 9.442 0.870 8 5919
- 0.202546 9 10 ack 40 ------- 0 9.906 18.145 0 5925
- 0.202674 9 10 ack 40 ------- 0 9.442 0.870 9 6083
- 0.202802 9 10 ack 40 ------- 0 9.442 0.870 10 6256
- 0.20293 9 10 ack 40 ------- 0 9.576 3.998 1 6478
- 0.203058 9 10 ack 40 ------- 0 25.277 10.1084 6 6150
- 0.203186 9 10 ack 40 ------- 0 25.265 10.1072 0 6151
+ 0.203737 9 10 ack 40 ------- 0 9.576 3.998 2 6645
- 0.203737 9 10 ack 40 ------- 0 9.576 3.998 2 6645
r 0.203757 9 10 tcp 1540 ------- 0 9.242 3.337 4 5170
r 0.203885 9 10 ack 40 ------- 0 25.277 10.1084 4 4639
r 0.204013 9 10 tcp 40 ------- 0 9.1056 12.470 0 5578
r 0.204141 9 10 ack 40 ------- 0 9.442 0.870 7 5765
r 0.204269 9 10 tcp 40 ------- 0 9.1051 12.465 0 5776
r 0.204397 9 10 ack 40 ------- 0 9.442 0.870 8 5919
r 0.204525 9 10 ack 40 ------- 0 9.906 18.145 0 5925
r 0.204653 9 10 ack 40 ------- 0 9.442 0.870 9 6083
r 0.204781 9 10 ack 40 ------- 0 9.442 0.870 10 6256
r 0.204909 9 10 ack 40 ------- 0 9.576 3.998 1 6478
r 0.205037 9 10 ack 40 ------- 0 25.277 10.1084 6 6150
r 0.205165 9 10 ack 40 ------- 0 25.265 10.1072 0 6151
r 0.205715 9 10 ack 40 ------- 0 9.576 3.998 2 6645
+ 0.208665 9 10 ack 40 ------- 0 9.575 3.997 1 6820
- 0.208665 9 10 ack 40 ------- 0 9.575 3.997 1 6820
r 0.210643 9 10 ack 40 ------- 0 9.575 3.997 1 6820
+ 0.211581 9 10 tcp 1540 ------- 0 6.1020 11.665 3 6590
- 0.211581 9 10 tcp 1540 ------- 0 6.1020 11.665 3 6590
+ 0.212813 9 10 tcp 1540 ------- 0 6.1020 11.665 4 6591
+ 0.213593 9 10 ack 40 ------- 0 9.575 3.997 2 6970
+ 0.213721 9 10 tcp 1540 ------- 0 9.245 3.340 1 6974
+ 0.213721 9 10 tcp 1540 ------- 0 9.245 3.340 2 6975
+ 0.213849 9 10 tcp 1540 ------- 0 9.171 2.304 3 6982
+ 0.213849 9 10 tcp 1540 ------- 0 9.171 2.304 4 6983
+ 0.213977 9 10 ack 40 ------- 0 9.585 3.1007 0 6993
+ 0.214105 9 10 tcp 1540 ------- 0 9.171 2.304 5 7003
+ 0.214105 9 10 tcp 1540 ------- 0 9.171 2.304 6 7004
+ 0.214233 9 10 tcp 1540 ------- 0 9.187 2.320 1 7010
d 0.214233 9 10 tcp 1540 ------- 0 9.187 2.320 1 7010
+ 0.214233 9 10 tcp 1540 ------- 0 9.187 2.320 2 7011
d 0.214233 9 10 tcp 1540 ------- 0 9.187 2.320 2 7011
+ 0.214361 9 10 ack 40 ------- 0 9.602 3.1024 0 7017
d 0.214361 9 10 ack 40 ------- 0 9.602 3.1024 0 7017
+ 0.214489 9 10 ack 40 ------- 0 9.376 0.804 0 7020
d 0.214489 9 10 ack 40 ------- 0 9.376 0.804 0 7020
+ 0.214617 9 10 ack 40 ------- 0 9.541 3.963 0 7024
d 0.214617 9 10 ack 40 ------- 0 9.541 3.963 0 7024
+ 0.214745 9 10 ack 40 ------- 0 9.559 3.981 0 7031
d 0.214745 9 10 ack 40 ------- 0 9.559 3.981 0 7031
- 0.216509 9 10 tcp 1540 ------- 0 6.1020 11.665 4 6591
r 0.218359 9 10 tcp 1540 ------- 0 6.1020 11.665 3 6590
- 0.221437 9 10 ack 40 ------- 0 9.575 3.997 2 6970
- 0.221565 9 10 tcp 1540 ------- 0 9.245 3.340 1 6974
r 0.223287 9 10 tcp 1540 ------- 0 6.1020 11.665 4 6591
r 0.223415 9 10 ack 40 ------- 0 9.575 3.997 2 6970
- 0.226493 9 10 tcp 1540 ------- 0 9.245 3.340 2 6975
r 0.228343 9 10 tcp 1540 ------- 0 9.245 3.340 1 6974
+ 0.229127 9 10 tcp 40 ------- 0 9.232 3.327 0 7546
- 0.231421 9 10 tcp 1540 ------- 0 9.171 2.304 3 6982
r 0.233271 9 10 tcp 1540 ------- 0 9.245 3.340 2 6975
- 0.236349 9 10 tcp 1540 ------- 0 9.171 2.304 4 6983
+ 0.236864 9 10 ack 40 ------- 0 25.277 10.1084 7 7395
r 0.238199 9 10 tcp 1540 ------- 0 9.171 2.304 3 6982
- 0.241277 9 10 ack 40 ------- 0 9.585 3.1007 0 6993
- 0.241405 9 10 tcp 1540 ------- 0 9.171 2.304 5 7003
r 0.243127 9 10 tcp 1540 ------- 0 9.171 2.304 4 6983
r 0.243255 9 10 ack 40 ------- 0 9.585 3.1007 0 6993
- 0.246333 9 10 tcp 1540 ------- 0 9.171 2.304 6 7004
r 0.248183 9 10 tcp 1540 ------- 0 9.171 2.304 5 7003
+ 0.248777 9 10 tcp 40 ------- 0 9.184 2.317 0 8228
+ 0.249497 9 10 tcp 1540 ------- 0 9.151 2.284 8 8259
- 0.251261 9 10 tcp 40 ------- 0 9.232 3.327 0 7546
- 0.251389 9 10 ack 40 ------- 0 25.277 10.1084 7 7395
+ 0.251453 9 10 tcp 1540 ------- 0 6.1014 11.659 1 8012
- 0.251517 9 10 tcp 40 ------- 0 9.184 2.317 0 8228
- 0.251645 9 10 tcp 1540 ------- 0 9.151 2.284 8 8259
+ 0.252685 9 10 tcp 1540 ------- 0 6.1014 11.659 2 8013
r 0.253111 9 10 tcp 1540 ------- 0 9.171 2.304 6 7004
r 0.253239 9 10 tcp 40 ------- 0 9.232 3.327 0 7546
r 0.253367 9 10 ack 40 ------- 0 25.277 10.1084 7 7395
r 0.253495 9 10 tcp 40 ------- 0 9.184 2.317 0 8228
+ 0.253981 9 10 tcp 40 ------- 0 6.995 10.406 0 8165
+ 0.254425 9 10 ack 40 ------- 0 9.442 0.870 11 8438
+ 0.255245 9 10 ack 40 ------- 0 25.277 10.1084 8 7971
- 0.256573 9 10 tcp 1540 ------- 0 6.1014 11.659 1 8012
r 0.258423 9 10 tcp 1540 ------- 0 9.151 2.284 8 8259
+ 0.259481 9 10 ack 40 ------- 0 9.442 0.870 12 8620
+ 0.259885 9 10 tcp 40 ------- 0 9.1209 19.896 0 8635
- 0.261501 9 10 tcp 1540 ------- 0 6.1014 11.659 2 8013
r 0.263351 9 10 tcp 1540 ------- 0 6.1014 11.659 1 8012
+ 0.264537 9 10 ack 40 ------- 0 9.442 0.870 13 8808
+ 0.266381 9 10 tcp 40 ------- 0 9.160 2.293 0 8876
- 0.266429 9 10 tcp 40 ------- 0 6.995 10.406 0 8165
- 0.266557 9 10 ack 40 ------- 0 9.442 0.870 11 8438
- 0.266685 9 10 ack 40 ------- 0 25.277 10.1084 8 7971
- 0.266813 9 10 ack 40 ------- 0 9.442 0.870 12 8620
- 0.266941 9 10 tcp 40 ------- 0 9.1209 19.896 0 8635
- 0.267069 9 10 ack 40 ------- 0 9.442 0.870 13 8808
- 0.267197 9 10 tcp 40 ------- 0 9.160 2.293 0 8876
r 0.268279 9 10 tcp 1540 ------- 0 6.1014 11.659 2 8013
r 0.268407 9 10 tcp 40 ------- 0 6.995 10.406 0 8165
r 0.268535 9 10 ack 40 ------- 0 9.442 0.870 11 8438
r 0.268663 9 10 ack 40 ------- 0 25.277 10.1084 8 7971
r 0.268791 9 10 ack 40 ------- 0 9.442 0.870 12 8620
r 0.268919 9 10 tcp 40 ------- 0 9.1209 19.896 0 8635
r 0.269047 9 10 ack 40 ------- 0 9.442 0.870 13 8808
r 0.269175 9 10 tcp 40 ------- 0 9.160 2.293 0 8876
+ 0.269465 9 10 ack 40 ------- 0 9.442 0.870 14 9006
- 0.269465 9 10 ack 40 ------- 0 9.442 0.870 14 9006
+ 0.269593 9 10 ack 40 ------- 0 9.568 3.990 0 9020
- 0.269593 9 10 ack 40 ------- 0 9.568 3.990 0 9020
r 0.271443 9 10 ack 40 ------- 0 9.442 0.870 14 9006
r 0.271571 9 10 ack 40 ------- 0 9.568 3.990 0 9020
+ 0.27159 9 10 tcp 1540 ------- 0 20.308 10.731 1 4242
- 0.27159 9 10 tcp 1540 ------- 0 20.308 10.731 1 4242
+ 0.272175 9 10 tcp 40 ------- 0 9.1217 19.904 0 9141
+ 0.274114 9 10 tcp 40 ------- 0 9.269 4.349 0 9226
+ 0.274649 9 10 ack 40 ------- 0 9.413 0.841 1 9260
+ 0.275838 9 10 tcp 40 ------- 0 9.1249 19.936 0 9311
- 0.276518 9 10 tcp 40 ------- 0 9.1217 19.904 0 9141
+ 0.276518 9 10 tcp 1540 ------- 0 20.308 10.731 2 4243
+ 0.27655 9 10 ack 40 ------- 0 25.305 10.1112 0 8811
- 0.276646 9 10 tcp 40 ------- 0 9.269 4.349 0 9226
- 0.276774 9 10 ack 40 ------- 0 9.413 0.841 1 9260
- 0.276902 9 10 tcp 40 ------- 0 9.1249 19.936 0 9311
- 0.27703 9 10 tcp 1540 ------- 0 20.308 10.731 2 4243
r 0.278368 9 10 tcp 1540 ------- 0 20.308 10.731 1 4242
r 0.278496 9 10 tcp 40 ------- 0 9.1217 19.904 0 9141
r 0.278624 9 10 tcp 40 ------- 0 9.269 4.349 0 9226
r 0.278752 9 10 ack 40 ------- 0 9.413 0.841 1 9260
r 0.27888 9 10 tcp 40 ------- 0 9.1249 19.936 0 9311
+ 0.279577 9 10 ack 40 ------- 0 9.413 0.841 2 9479
+ 0.279705 9 10 ack 40 ------- 0 9.373 0.801 0 9482
+ 0.279742 9 10 tcp 40 ------- 0 9.12 0.190 0 9485
- 0.281958 9 10 ack 40 ------- 0 25.305 10.1112 0 8811
- 0.282086 9 10 ack 40 ------- 0 9.413 0.841 2 9479
- 0.282214 9 10 ack 40 ------- 0 9.373 0.801 0 9482
- 0.282342 9 10 tcp 40 ------- 0 9.12 0.190 0 9485
r 0.283808 9 10 tcp 1540 ------- 0 20.308 10.731 2 4243
r 0.283936 9 10 ack 40 ------- 0 25.305 10.1112 0 8811
r 0.284064 9 10 ack 40 ------- 0 9.413 0.841 2 9479
r 0.284192 9 10 ack 40 ------- 0 9.373 0.801 0 9482
r 0.28432 9 10 tcp 40 ------- 0 9.12 0.190 0 9485
+ 0.284633 9 10 ack 40 ------- 0 9.791 16.228 3 9677
- 0.284633 9 10 ack 40 ------- 0 9.791 16.228 3 9677
+ 0.284761 9 10 tcp 1540 ------- 0 9.251 4.331 3 9679
+ 0.284761 9 10 tcp 1540 ------- 0 9.251 4.331 4 9680
- 0.284761 9 10 tcp 1540 ------- 0 9.251 4.331 3 9679
r 0.286611 9 10 ack 40 ------- 0 9.791 16.228 3 9677
+ 0.288653 9 10 tcp 40 ------- 0 9.169 2.302 0 9817
+ 0.288748 9 10 tcp 40 ------- 0 9.1263 19.950 0 9818
- 0.289689 9 10 tcp 1540 ------- 0 9.251 4.331 4 9680
r 0.291539 9 10 tcp 1540 ------- 0 9.251 4.331 3 9679
+ 0.293317 9 10 ack 40 ------- 0 25.277 10.1084 9 9382
+ 0.294581 9 10 ack 40 ------- 0 25.277 10.1084 10 9545
- 0.294617 9 10 tcp 40 ------- 0 9.169 2.302 0 9817
- 0.294745 9 10 tcp 40 ------- 0 9.1263 19.950 0 9818
- 0.294873 9 10 ack 40 ------- 0 25.277 10.1084 9 9382
- 0.295001 9 10 ack 40 ------- 0 25.277 10.1084 10 9545
r 0.296467 9 10 tcp 1540 ------- 0 9.251 4.331 4 9680
r 0.296595 9 10 tcp 40 ------- 0 9.169 2.302 0 9817
r 0.296723 9 10 tcp 40 ------- 0 9.1263 19.950 0 9818
+ 0.296754 9 10 tcp 1540 ---A--- 0 9.151 2.284 3 10141
- 0.296754 9 10 tcp 1540 ---A--- 0 9.151 2.284 3 10141
r 0.296851 9 10 ack 40 ------- 0 25.277 10.1084 9 9382
r 0.296979 9 10 ack 40 ------- 0 25.277 10.1084 10 9545
+ 0.297502 9 10 ack 40 ------- 0 25.277 10.1084 11 9717
+ 0.299545 9 10 ack 40 ------- 0 9.538 3.960 1 10263
- 0.301682 9 10 ack 40 ------- 0 25.277 10.1084 11 9717
- 0.30181 9 10 ack 40 ------- 0 9.538 3.960 1 10263
r 0.303533 9 10 tcp 1540 ---A--- 0 9.151 2.284 3 10141
r 0.303661 9 10 ack 40 ------- 0 25.277 10.1084 11 9717
r 0.303789 9 10 ack 40 ------- 0 9.538 3.960 1 10263
+ 0.304473 9 10 ack 40 ------- 0 9.791 16.228 4 10472
- 0.304473 9 10 ack 40 ------- 0 9.791 16.228 4 10472
r 0.306451 9 10 ack 40 ------- 0 9.791 16.228 4 10472
+ 0.309401 9 10 ack 40 ------- 0 9.538 3.960 2 10672
- 0.309401 9 10 ack 40 ------- 0 9.538 3.960 2 10672
+ 0.309529 9 10 tcp 1540 ------- 0 9.5 0.183 3 10675
+ 0.309529 9 10 tcp 1540 ------- 0 9.5 0.183 4 10676
- 0.309529 9 10 tcp 1540 ------- 0 9.5 0.183 3 10675
+ 0.309657 9 10 tcp 1540 ------- 0 9.251 4.331 5 10682
+ 0.309657 9 10 tcp 1540 ------- 0 9.251 4.331 6 10683
+ 0.309785 9 10 tcp 1540 ------- 0 9.250 4.330 1 10687
+ 0.309785 9 10 tcp 1540 ------- 0 9.250 4.330 2 10688
+ 0.30979 9 10 ack 40 ------- 0 25.277 10.1084 12 10140
r 0.311379 9 10 ack 40 ------- 0 9.538 3.960 2 10672
- 0.314457 9 10 tcp 1540 ------- 0 9.5 0.183 4 10676
+ 0.314713 9 10 ack 40 ------- 0 9.906 18.145 1 10891
r 0.316307 9 10 tcp 1540 ------- 0 9.5 0.183 3 10675
- 0.319385 9 10 tcp 1540 ------- 0 9.251 4.331 5 10682
+ 0.319433 9 10 rtProtoDV 26 ------- 0 9.1472 10.1115 -1 11075
+ 0.319641 9 10 ack 40 ------- 0 9.906 18.145 2 11083
+ 0.319769 9 10 tcp 1540 ------- 0 9.171 2.304 7 11088
+ 0.319769 9 10 tcp 1540 ------- 0 9.171 2.304 8 11089
+ 0.319897 9 10 ack 40 ------- 0 9.360 0.788 0 11096
d 0.319897 9 10 ack 40 ------- 0 9.360 0.788 0 11096
+ 0.320025 9 10 tcp 1540 ------- 0 9.171 2.304 9 11102
d 0.320025 9 10 tcp 1540 ------- 0 9.171 2.304 9 11102
+ 0.320025 9 10 tcp 1540 ------- 0 9.171 2.304 10 11103
d 0.320025 9 10 tcp 1540 ------- 0 9.171 2.304 10 11103
+ 0.320153 9 10 ack 40 ------- 0 9.549 3.971 0 11109
d 0.320153 9 10 ack 40 ------- 0 9.549 3.971 0 11109
+ 0.320281 9 10 tcp 1540 ------- 0 9.2 0.180 3 11112
d 0.320281 9 10 tcp 1540 ------- 0 9.2 0.180 3 11112
r 0.321235 9 10 tcp 1540 ------- 0 9.5 0.183 4 10676
+ 0.322334 9 10 ack 40 ------- 0 25.277 10.1084 13 10505
d 0.322334 9 10 ack 40 ------- 0 25.277 10.1084 13 10505
+ 0.323598 9 10 ack 40 ------- 0 25.265 10.1072 1 10568
d 0.323598 9 10 ack 40 ------- 0 25.265 10.1072 1 10568
- 0.324313 9 10 tcp 1540 ------- 0 9.251 4.331 6 10683
+ 0.324862 9 10 ack 40 ------- 0 25.265 10.1072 2 10617
r 0.326163 9 10 tcp 1540 ------- 0 9.251 4.331 5 10682
- 0.329241 9 10 tcp 1540 ------- 0 9.250 4.330 1 10687
+ 0.330649 9 10 tcp 1540 ------- 0 9.171 2.304 11 11546
+ 0.330649 9 10 tcp 1540 ------- 0 9.171 2.304 12 11547
d 0.330649 9 10 tcp 1540 ------- 0 9.171 2.304 12 11547
+ 0.331033 9 10 ack 40 ------- 0 9.524 3.946 0 11556
d 0.331033 9 10 ack 40 ------- 0 9.524 3.946 0 11556
r 0.331091 9 10 tcp 1540 ------- 0 9.251 4.331 6 10683
+ 0.331161 9 10 tcp 1540 ------- 0 9.171 2.304 13 11563
d 0.331161 9 10 tcp 1540 ------- 0 9.171 2.304 13 11563
+ 0.331161 9 10 tcp 1540 ------- 0 9.171 2.304 14 11564
d 0.331161 9 10 tcp 1540 ------- 0 9.171 2.304 14 11564
+ 0.334074 9 10 tcp 40 ------- 0 9.1 0.179 0 11658
d 0.334074 9 10 tcp 40 ------- 0 9.1 0.179 0 11658
- 0.334169 9 10 tcp 1540 ------- 0 9.250 4.330 2 10688
r 0.336019 9 10 tcp 1540 ------- 0 9.250 4.330 1 10687
+ 0.336089 9 10 ack 40 ------- 0 9.442 0.870 15 11758
- 0.339097 9 10 ack 40 ------- 0 25.277 10.1084 12 10140
- 0.339225 9 10 ack 40 ------- 0 9.906 18.145 1 10891
- 0.339353 9 10 rtProtoDV 26 ------- 0 9.1472 10.1115 -1 11075
- 0.339436 9 10 ack 40 ------- 0 9.906 18.145 2 11083
- 0.339564 9 10 tcp 1540 ------- 0 9.171 2.304 7 11088
+ 0.340727 9 10 tcp 40 ------- 0 9.1160 17.643 0 11935
r 0.340947 9 10 tcp 1540 ------- 0 9.250 4.330 2 10688
r 0.341075 9 10 ack 40 ------- 0 25.277 10.1084 12 10140
+ 0.341102 9 10 ack 40 ------- 0 25.302 10.1109 0 11058
r 0.341203 9 10 ack 40 ------- 0 9.906 18.145 1 10891
r 0.341286 9 10 rtProtoDV 26 ------- 0 9.1472 10.1115 -1 11075
r 0.341414 9 10 ack 40 ------- 0 9.906 18.145 2 11083
+ 0.34249 9 10 tcp 40 ------- 0 9.205 3.300 0 12029
+ 0.343649 9 10 tcp 40 ------- 0 9.237 3.332 0 12084
- 0.344492 9 10 tcp 1540 ------- 0 9.171 2.304 8 11089
+ 0.34483 9 10 ack 40 ------- 0 25.287 10.1094 0 11536
r 0.346342 9 10 tcp 1540 ------- 0 9.171 2.304 7 11088
- 0.34942 9 10 ack 40 ------- 0 25.265 10.1072 2 10617
- 0.349548 9 10 tcp 1540 ------- 0 9.171 2.304 11 11546
+ 0.349807 9 10 tcp 40 ------- 0 9.1307 22.855 0 12316
+ 0.350437 9 10 tcp 1540 ---A--- 0 6.1015 11.660 1 12122
+ 0.351001 9 10 ack 40 ------- 0 9.442 0.870 16 12360
+ 0.351129 9 10 tcp 1540 ------- 0 9.184 2.317 1 12363
d 0.351129 9 10 tcp 1540 ------- 0 9.184 2.317 1 12363
+ 0.351129 9 10 tcp 1540 ------- 0 9.184 2.317 2 12364
d 0.351129 9 10 tcp 1540 ------- 0 9.184 2.317 2 12364
r 0.35127 9 10 tcp 1540 ------- 0 9.171 2.304 8 11089
r 0.351398 9 10 ack 40 ------- 0 25.265 10.1072 2 10617
+ 0.353302 9 10 tcp 40 ------- 0 9.234 3.329 0 12461
d 0.353302 9 10 tcp 40 ------- 0 9.234 3.329 0 12461
- 0.354476 9 10 ack 40 ------- 0 9.442 0.870 15 11758
- 0.354604 9 10 tcp 40 ------- 0 9.1160 17.643 0 11935
- 0.354732 9 10 ack 40 ------- 0 25.302 10.1109 0 11058
- 0.35486 9 10 tcp 40 ------- 0 9.205 3.300 0 12029
- 0.354988 9 10 tcp 40 ------- 0 9.237 3.332 0 12084
- 0.355116 9 10 ack 40 ------- 0 25.287 10.1094 0 11536
- 0.355244 9 10 tcp 40 ------- 0 9.1307 22.855 0 12316
- 0.355372 9 10 tcp 1540 ---A--- 0 6.1015 11.660 1 12122
+ 0.355881 9 10 tcp 40 ------- 0 9.144 2.277 0 12546
+ 0.356018 9 10 tcp 40 ------- 0 9.6 0.184 0 12548
+ 0.356057 9 10 ack 40 ------- 0 9.442 0.870 17 12549
+ 0.356185 9 10 ack 40 ------- 0 9.486 2.855 0 12555
r 0.356326 9 10 tcp 1540 ------- 0 9.171 2.304 11 11546
r 0.356454 9 10 ack 40 ------- 0 9.442 0.870 15 11758
r 0.356582 9 10 tcp 40 ------- 0 9.1160 17.643 0 11935
r 0.35671 9 10 ack 40 ------- 0 25.302 10.1109 0 11058
r 0.356838 9 10 tcp 40 ------- 0 9.205 3.300 0 12029
r 0.356966 9 10 tcp 40 ------- 0 9.237 3.332 0 12084
r 0.357094 9 10 ack 40 ------- 0 25.287 10.1094 0 11536
r 0.357222 9 10 tcp 40 ------- 0 9.1307 22.855 0 12316
- 0.3603 9 10 ack 40 ------- 0 9.442 0.870 16 12360
+ 0.360322 9 10 tcp 1540 ------- 0 6.995 10.406 1 12491
- 0.360428 9 10 tcp 40 ------- 0 9.144 2.277 0 12546
- 0.360556 9 10 tcp 40 ------- 0 9.6 0.184 0 12548
- 0.360684 9 10 ack 40 ------- 0 9.442 0.870 17 12549
- 0.360812 9 10 ack 40 ------- 0 9.486 2.855 0 12555
- 0.36094 9 10 tcp 1540 ------- 0 6.995 10.406 1 12491
+ 0.361113 9 10 ack 40 ------- 0 9.442 0.870 18 12730
+ 0.361554 9 10 tcp 1540 ------- 0 6.995 10.406 2 12492
r 0.36215 9 10 tcp 1540 ---A--- 0 6.1015 11.660 1 12122
r 0.362278 9 10 ack 40 ------- 0 9.442 0.870 16 12360
r 0.362406 9 10 tcp 40 ------- 0 9.144 2.277 0 12546
r 0.362534 9 10 tcp 40 ------- 0 9.6 0.184 0 12548
r 0.362662 9 10 ack 40 ------- 0 9.442 0.870 17 12549
r 0.36279 9 10 ack 40 ------- 0 9.486 2.855 0 12555