+ 0.007482 15 24 rtProtoDV 26 ------- 0 15.1521 24.1022 -1 179
- 0.007482 15 24 rtProtoDV 26 ------- 0 15.1521 24.1022 -1 179
+ 0.009747 15 24 rtProtoDV 26 ------- 0 15.1521 24.1022 -1 272
- 0.009747 15 24 rtProtoDV 26 ------- 0 15.1521 24.1022 -1 272
+ 0.010521 15 24 rtProtoDV 26 ------- 0 15.1521 24.1022 -1 326
- 0.010521 15 24 rtProtoDV 26 ------- 0 15.1521 24.1022 -1 326
+ 0.010808 15 24 rtProtoDV 26 ------- 0 15.1521 24.1022 -1 346
- 0.010808 15 24 rtProtoDV 26 ------- 0 15.1521 24.1022 -1 346
+ 0.01089 15 24 rtProtoDV 26 ------- 0 15.1521 24.1022 -1 351
- 0.01089 15 24 rtProtoDV 26 ------- 0 15.1521 24.1022 -1 351
+ 0.01164 15 24 rtProtoDV 26 ------- 0 15.1521 24.1022 -1 401
- 0.01164 15 24 rtProtoDV 26 ------- 0 15.1521 24.1022 -1 401
+ 0.021516 15 24 rtProtoDV 26 ------- 0 15.1521 24.1022 -1 795
- 0.021516 15 24 rtProtoDV 26 ------- 0 15.1521 24.1022 -1 795
+ 0.023383 15 24 tcp 40 ------- 0 15.1421 24.887 0 844
- 0.023383 15 24 tcp 40 ------- 0 15.1421 24.887 0 844
+ 0.032547 15 24 tcp 40 ------- 0 15.1417 24.883 0 1055
- 0.032547 15 24 tcp 40 ------- 0 15.1417 24.883 0 1055
r 0.044756 15 24 rtProtoDV 26 ------- 0 15.1521 24.1022 -1 179
r 0.047021 15 24 rtProtoDV 26 ------- 0 15.1521 24.1022 -1 272
r 0.047795 15 24 rtProtoDV 26 ------- 0 15.1521 24.1022 -1 326
r 0.048082 15 24 rtProtoDV 26 ------- 0 15.1521 24.1022 -1 346
r 0.048164 15 24 rtProtoDV 26 ------- 0 15.1521 24.1022 -1 351
r 0.048914 15 24 rtProtoDV 26 ------- 0 15.1521 24.1022 -1 401
+ 0.056904 15 24 rtProtoDV 26 ------- 0 15.1521 24.1022 -1 1663
- 0.056904 15 24 rtProtoDV 26 ------- 0 15.1521 24.1022 -1 1663
r 0.05879 15 24 rtProtoDV 26 ------- 0 15.1521 24.1022 -1 795
r 0.060679 15 24 tcp 40 ------- 0 15.1421 24.887 0 844
r 0.069843 15 24 tcp 40 ------- 0 15.1417 24.883 0 1055
+ 0.07293 15 24 rtProtoDV 26 ------- 0 15.1521 24.1022 -1 2155
- 0.07293 15 24 rtProtoDV 26 ------- 0 15.1521 24.1022 -1 2155
+ 0.092061 15 24 tcp 1540 ------- 0 12.47 1.563 1 2718
- 0.092061 15 24 tcp 1540 ------- 0 12.47 1.563 1 2718
+ 0.093293 15 24 tcp 1540 ------- 0 12.47 1.563 2 2719
r 0.094178 15 24 rtProtoDV 26 ------- 0 15.1521 24.1022 -1 1663
- 0.094525 15 24 tcp 1540 ------- 0 12.47 1.563 2 2719
+ 0.097976 15 24 tcp 1540 ------- 0 15.1421 24.887 1 2985
- 0.097976 15 24 tcp 1540 ------- 0 15.1421 24.887 1 2985
+ 0.097976 15 24 tcp 1540 ------- 0 15.1421 24.887 2 2986
- 0.10044 15 24 tcp 1540 ------- 0 15.1421 24.887 2 2986
+ 0.100789 15 24 tcp 40 ------- 0 15.92 1.630 0 3075
- 0.102904 15 24 tcp 40 ------- 0 15.92 1.630 0 3075
+ 0.106477 15 24 tcp 40 ------- 0 15.117 1.655 0 3277
- 0.106477 15 24 tcp 40 ------- 0 15.117 1.655 0 3277
+ 0.10714 15 24 tcp 1540 ------- 0 15.1417 24.883 1 3292
- 0.10714 15 24 tcp 1540 ------- 0 15.1417 24.883 1 3292
+ 0.10714 15 24 tcp 1540 ------- 0 15.1417 24.883 2 3293
- 0.109604 15 24 tcp 1540 ------- 0 15.1417 24.883 2 3293
r 0.110204 15 24 rtProtoDV 26 ------- 0 15.1521 24.1022 -1 2155
+ 0.114578 15 24 ack 40 ------- 0 12.310 1.1299 0 3452
- 0.114578 15 24 ack 40 ------- 0 12.310 1.1299 0 3452
+ 0.114642 15 24 ack 40 ------- 0 12.366 1.1355 0 3487
- 0.114642 15 24 ack 40 ------- 0 12.366 1.1355 0 3487
+ 0.123833 15 24 tcp 40 ------- 0 14.8 1.592 0 2913
- 0.123833 15 24 tcp 40 ------- 0 14.8 1.592 0 2913
+ 0.12431 15 24 tcp 40 ------- 0 15.1239 16.696 0 3814
- 0.12431 15 24 tcp 40 ------- 0 15.1239 16.696 0 3814
+ 0.12472 15 24 ack 40 ------- 0 15.686 1.1703 3 3826
- 0.12472 15 24 ack 40 ------- 0 15.686 1.1703 3 3826
+ 0.12664 15 24 tcp 40 ------- 0 12.59 1.575 0 3824
- 0.12664 15 24 tcp 40 ------- 0 12.59 1.575 0 3824
+ 0.130754 15 24 ack 40 ------- 0 12.329 1.1318 0 3998
- 0.130754 15 24 ack 40 ------- 0 12.329 1.1318 0 3998
+ 0.131572 15 24 tcp 40 ------- 0 13.1518 21.774 0 3809
- 0.131572 15 24 tcp 40 ------- 0 13.1518 21.774 0 3809
+ 0.1317 15 24 tcp 40 ------- 0 14.1592 24.813 0 3947
- 0.1317 15 24 tcp 40 ------- 0 14.1592 24.813 0 3947
r 0.131758 15 24 tcp 1540 ------- 0 12.47 1.563 1 2718
r 0.134222 15 24 tcp 1540 ------- 0 12.47 1.563 2 2719
r 0.137672 15 24 tcp 1540 ------- 0 15.1421 24.887 1 2985
r 0.140136 15 24 tcp 1540 ------- 0 15.1421 24.887 2 2986
r 0.1402 15 24 tcp 40 ------- 0 15.92 1.630 0 3075
+ 0.141812 15 24 tcp 40 ------- 0 14.1294 16.683 0 4249
- 0.141812 15 24 tcp 40 ------- 0 14.1294 16.683 0 4249
r 0.143773 15 24 tcp 40 ------- 0 15.117 1.655 0 3277
+ 0.144631 15 24 ack 40 ------- 0 15.686 1.1703 3 4469
- 0.144631 15 24 ack 40 ------- 0 15.686 1.1703 3 4469
r 0.146836 15 24 tcp 1540 ------- 0 15.1417 24.883 1 3292
+ 0.147095 15 24 ack 40 ------- 0 15.686 1.1703 3 4569
- 0.147095 15 24 ack 40 ------- 0 15.686 1.1703 3 4569
+ 0.147159 15 24 tcp 1540 ------- 0 15.65 1.603 1 4573
+ 0.147159 15 24 tcp 1540 ------- 0 15.65 1.603 2 4574
- 0.147159 15 24 tcp 1540 ------- 0 15.65 1.603 1 4573
+ 0.148801 15 24 tcp 40 ------- 0 15.95 1.633 0 4634
+ 0.148989 15 24 tcp 40 ------- 0 15.1415 24.881 0 4638
r 0.1493 15 24 tcp 1540 ------- 0 15.1417 24.883 2 3293
- 0.149623 15 24 tcp 1540 ------- 0 15.65 1.603 2 4574
+ 0.15181 15 24 tcp 40 ------- 0 14.1599 24.820 0 4680
r 0.151874 15 24 ack 40 ------- 0 12.310 1.1299 0 3452
r 0.151938 15 24 ack 40 ------- 0 12.366 1.1355 0 3487
- 0.152087 15 24 tcp 40 ------- 0 15.95 1.633 0 4634
- 0.152151 15 24 tcp 40 ------- 0 15.1415 24.881 0 4638
- 0.152215 15 24 tcp 40 ------- 0 14.1599 24.820 0 4680
r 0.161129 15 24 tcp 40 ------- 0 14.8 1.592 0 2913
r 0.161606 15 24 tcp 40 ------- 0 15.1239 16.696 0 3814
r 0.162016 15 24 ack 40 ------- 0 15.686 1.1703 3 3826
r 0.163937 15 24 tcp 40 ------- 0 12.59 1.575 0 3824
r 0.16805 15 24 ack 40 ------- 0 12.329 1.1318 0 3998
r 0.168868 15 24 tcp 40 ------- 0 13.1518 21.774 0 3809
r 0.168996 15 24 tcp 40 ------- 0 14.1592 24.813 0 3947
+ 0.171101 15 24 tcp 40 ------- 0 5.1590 24.699 0 5071
- 0.171101 15 24 tcp 40 ------- 0 5.1590 24.699 0 5071
+ 0.172282 15 24 ack 40 ------- 0 15.565 1.1582 1 5558
- 0.172282 15 24 ack 40 ------- 0 15.565 1.1582 1 5558
+ 0.17481 15 24 ack 40 ------- 0 15.565 1.1582 2 5641
- 0.17481 15 24 ack 40 ------- 0 15.565 1.1582 2 5641
+ 0.174874 15 24 tcp 1540 ------- 0 15.63 1.601 3 5643
+ 0.174874 15 24 tcp 1540 ------- 0 15.63 1.601 4 5644
- 0.174874 15 24 tcp 1540 ------- 0 15.63 1.601 3 5643
+ 0.174938 15 24 tcp 1540 ------- 0 15.63 1.601 5 5647
+ 0.174938 15 24 tcp 1540 ------- 0 15.63 1.601 6 5648
+ 0.175002 15 24 tcp 1540 ------- 0 15.1421 24.887 3 5651
+ 0.175002 15 24 tcp 1540 ------- 0 15.1421 24.887 4 5652
- 0.177338 15 24 tcp 1540 ------- 0 15.63 1.601 4 5644
+ 0.177432 15 24 tcp 1540 ------- 0 15.1421 24.887 5 5741
+ 0.177432 15 24 tcp 1540 ------- 0 15.1421 24.887 6 5742
r 0.179108 15 24 tcp 40 ------- 0 14.1294 16.683 0 4249
- 0.179802 15 24 tcp 1540 ------- 0 15.63 1.601 5 5647
+ 0.180998 15 24 tcp 40 ------- 0 15.1393 21.832 0 5845
r 0.181927 15 24 ack 40 ------- 0 15.686 1.1703 3 4469
- 0.182266 15 24 tcp 1540 ------- 0 15.63 1.601 6 5648
+ 0.183946 15 24 tcp 40 ------- 0 12.50 1.566 0 5892
+ 0.184132 15 24 tcp 1540 ------- 0 15.1417 24.883 3 5939
+ 0.184132 15 24 tcp 1540 ------- 0 15.1417 24.883 4 5940
r 0.184391 15 24 ack 40 ------- 0 15.686 1.1703 3 4569
- 0.18473 15 24 tcp 1540 ------- 0 15.1421 24.887 3 5651
+ 0.186596 15 24 tcp 1540 ------- 0 15.1417 24.883 5 6022
+ 0.186596 15 24 tcp 1540 ------- 0 15.1417 24.883 6 6023
r 0.186855 15 24 tcp 1540 ------- 0 15.65 1.603 1 4573
- 0.187194 15 24 tcp 1540 ------- 0 15.1421 24.887 4 5652
+ 0.188089 15 24 ack 40 ------- 0 15.520 1.1537 0 6063
+ 0.18848 15 24 tcp 40 ------- 0 15.88 1.626 0 6079
d 0.18848 15 24 tcp 40 ------- 0 15.88 1.626 0 6079
r 0.189319 15 24 tcp 1540 ------- 0 15.65 1.603 2 4574
r 0.189383 15 24 tcp 40 ------- 0 15.95 1.633 0 4634
r 0.189447 15 24 tcp 40 ------- 0 15.1415 24.881 0 4638
r 0.189511 15 24 tcp 40 ------- 0 14.1599 24.820 0 4680
- 0.189658 15 24 tcp 1540 ------- 0 15.1421 24.887 5 5741
- 0.192122 15 24 tcp 1540 ------- 0 15.1421 24.887 6 5742
- 0.194586 15 24 tcp 40 ------- 0 15.1393 21.832 0 5845
- 0.19465 15 24 tcp 40 ------- 0 12.50 1.566 0 5892
- 0.194714 15 24 tcp 1540 ------- 0 15.1417 24.883 3 5939
+ 0.195911 15 24 ack 40 ------- 0 15.546 1.1563 0 6351
- 0.197178 15 24 tcp 1540 ------- 0 15.1417 24.883 4 5940
+ 0.199348 15 24 ack 40 ------- 0 13.513 1.1417 0 6161
+ 0.199389 15 24 tcp 1540 ------- 0 15.1372 21.811 1 6490
+ 0.199389 15 24 tcp 1540 ------- 0 15.1372 21.811 2 6491
- 0.199642 15 24 tcp 1540 ------- 0 15.1417 24.883 5 6022
- 0.202106 15 24 tcp 1540 ------- 0 15.1417 24.883 6 6023
- 0.20457 15 24 ack 40 ------- 0 15.520 1.1537 0 6063
- 0.204634 15 24 ack 40 ------- 0 15.546 1.1563 0 6351
- 0.204698 15 24 ack 40 ------- 0 13.513 1.1417 0 6161
- 0.204762 15 24 tcp 1540 ------- 0 15.1372 21.811 1 6490
+ 0.207074 15 24 ack 40 ------- 0 15.608 1.1625 0 6772
- 0.207226 15 24 tcp 1540 ------- 0 15.1372 21.811 2 6491
r 0.208398 15 24 tcp 40 ------- 0 5.1590 24.699 0 5071
r 0.209578 15 24 ack 40 ------- 0 15.565 1.1582 1 5558
- 0.20969 15 24 ack 40 ------- 0 15.608 1.1625 0 6772
r 0.212106 15 24 ack 40 ------- 0 15.565 1.1582 2 5641
r 0.21457 15 24 tcp 1540 ------- 0 15.63 1.601 3 5643
r 0.217034 15 24 tcp 1540 ------- 0 15.63 1.601 4 5644
r 0.219498 15 24 tcp 1540 ------- 0 15.63 1.601 5 5647
+ 0.220975 15 24 tcp 40 ------- 0 15.68 1.606 0 7250
- 0.220975 15 24 tcp 40 ------- 0 15.68 1.606 0 7250
r 0.221962 15 24 tcp 1540 ------- 0 15.63 1.601 6 5648
r 0.224426 15 24 tcp 1540 ------- 0 15.1421 24.887 3 5651
+ 0.226743 15 24 tcp 1540 ------- 0 15.1415 24.881 1 7461
- 0.226743 15 24 tcp 1540 ------- 0 15.1415 24.881 1 7461
+ 0.226743 15 24 tcp 1540 ------- 0 15.1415 24.881 2 7462
r 0.22689 15 24 tcp 1540 ------- 0 15.1421 24.887 4 5652
- 0.229207 15 24 tcp 1540 ------- 0 15.1415 24.881 2 7462
r 0.229354 15 24 tcp 1540 ------- 0 15.1421 24.887 5 5741
+ 0.231666 15 24 tcp 40 ------- 0 12.1281 24.790 0 7489
- 0.231671 15 24 tcp 40 ------- 0 12.1281 24.790 0 7489
r 0.231818 15 24 tcp 1540 ------- 0 15.1421 24.887 6 5742
r 0.231882 15 24 tcp 40 ------- 0 15.1393 21.832 0 5845
r 0.231946 15 24 tcp 40 ------- 0 12.50 1.566 0 5892
+ 0.233266 15 24 ack 40 ------- 0 14.437 1.1485 0 6771
- 0.233266 15 24 ack 40 ------- 0 14.437 1.1485 0 6771
r 0.23441 15 24 tcp 1540 ------- 0 15.1417 24.883 3 5939
r 0.236874 15 24 tcp 1540 ------- 0 15.1417 24.883 4 5940
+ 0.238194 15 24 tcp 1540 ------- 0 14.1592 24.813 1 6797
- 0.238194 15 24 tcp 1540 ------- 0 14.1592 24.813 1 6797
+ 0.238322 15 24 tcp 40 ------- 0 14.1536 21.778 0 7045
+ 0.238962 15 24 tcp 40 ------- 0 14.1627 24.848 0 7610
+ 0.23909 15 24 tcp 40 ------- 0 13.1504 21.760 0 7614
r 0.239338 15 24 tcp 1540 ------- 0 15.1417 24.883 5 6022
- 0.240658 15 24 tcp 40 ------- 0 14.1536 21.778 0 7045
- 0.240722 15 24 tcp 40 ------- 0 14.1627 24.848 0 7610
- 0.240786 15 24 tcp 40 ------- 0 13.1504 21.760 0 7614
+ 0.241286 15 24 ack 40 ------- 0 15.568 1.1585 0 7976
- 0.241286 15 24 ack 40 ------- 0 15.568 1.1585 0 7976
r 0.241802 15 24 tcp 1540 ------- 0 15.1417 24.883 6 6023
r 0.241866 15 24 ack 40 ------- 0 15.520 1.1537 0 6063
r 0.24193 15 24 ack 40 ------- 0 15.546 1.1563 0 6351
r 0.241994 15 24 ack 40 ------- 0 13.513 1.1417 0 6161
+ 0.244355 15 24 tcp 1540 ------- 0 15.92 1.630 1 8090
- 0.244355 15 24 tcp 1540 ------- 0 15.92 1.630 1 8090
+ 0.244355 15 24 tcp 1540 ------- 0 15.92 1.630 2 8091
r 0.244458 15 24 tcp 1540 ------- 0 15.1372 21.811 1 6490
- 0.246819 15 24 tcp 1540 ------- 0 15.92 1.630 2 8091
r 0.246922 15 24 tcp 1540 ------- 0 15.1372 21.811 2 6491
r 0.246986 15 24 ack 40 ------- 0 15.608 1.1625 0 6772
+ 0.247928 15 24 tcp 1540 ------- 0 15.117 1.655 1 8200
+ 0.247928 15 24 tcp 1540 ------- 0 15.117 1.655 2 8201
- 0.249283 15 24 tcp 1540 ------- 0 15.117 1.655 1 8200
+ 0.250658 15 24 tcp 40 ------- 0 12.57 1.573 0 8198
- 0.251747 15 24 tcp 1540 ------- 0 15.117 1.655 2 8201
+ 0.252507 15 24 ack 40 ------- 0 15.604 1.1621 0 8375
+ 0.252982 15 24 tcp 40 ------- 0 15.101 1.639 0 8389
+ 0.253442 15 24 tcp 1540 ------- 0 12.47 1.563 3 8320
- 0.254211 15 24 tcp 40 ------- 0 12.57 1.573 0 8198
- 0.254275 15 24 ack 40 ------- 0 15.604 1.1621 0 8375
- 0.254339 15 24 tcp 40 ------- 0 15.101 1.639 0 8389
- 0.254403 15 24 tcp 1540 ------- 0 12.47 1.563 3 8320
+ 0.254674 15 24 tcp 1540 ------- 0 12.47 1.563 4 8321
+ 0.255906 15 24 tcp 1540 ------- 0 12.47 1.563 5 8322
- 0.256867 15 24 tcp 1540 ------- 0 12.47 1.563 4 8321
+ 0.257138 15 24 tcp 1540 ------- 0 12.47 1.563 6 8323
r 0.258271 15 24 tcp 40 ------- 0 15.68 1.606 0 7250
+ 0.258914 15 24 tcp 40 ------- 0 15.1356 21.795 0 8605
- 0.259331 15 24 tcp 1540 ------- 0 12.47 1.563 5 8322
- 0.261795 15 24 tcp 1540 ------- 0 12.47 1.563 6 8323
+ 0.262363 15 24 tcp 1540 ------- 0 15.1421 24.887 7 8730
+ 0.262363 15 24 tcp 1540 ------- 0 15.1421 24.887 8 8731
+ 0.262856 15 24 tcp 1540 ---A--- 0 15.1371 21.810 1 8758
- 0.264259 15 24 tcp 40 ------- 0 15.1356 21.795 0 8605
- 0.264323 15 24 tcp 1540 ------- 0 15.1421 24.887 7 8730
+ 0.264891 15 24 tcp 1540 ------- 0 15.1421 24.887 9 8822
+ 0.264891 15 24 tcp 1540 ------- 0 15.1421 24.887 10 8823
r 0.266439 15 24 tcp 1540 ------- 0 15.1415 24.881 1 7461
- 0.266787 15 24 tcp 1540 ------- 0 15.1421 24.887 8 8731
+ 0.267419 15 24 tcp 1540 ------- 0 15.1421 24.887 11 8919
+ 0.267419 15 24 tcp 1540 ------- 0 15.1421 24.887 12 8920
r 0.268903 15 24 tcp 1540 ------- 0 15.1415 24.881 2 7462
r 0.268967 15 24 tcp 40 ------- 0 12.1281 24.790 0 7489
- 0.269251 15 24 tcp 1540 ---A--- 0 15.1371 21.810 1 8758
+ 0.270011 15 24 tcp 1540 ------- 0 15.1421 24.887 13 9041
+ 0.270011 15 24 tcp 1540 ------- 0 15.1421 24.887 14 9042
r 0.270562 15 24 ack 40 ------- 0 14.437 1.1485 0 6771
- 0.271715 15 24 tcp 1540 ------- 0 15.1421 24.887 9 8822
+ 0.272475 15 24 ack 40 ------- 0 15.686 1.1703 3 9156
+ 0.272539 15 24 tcp 1540 ------- 0 15.1417 24.883 7 9158
+ 0.272539 15 24 tcp 1540 ------- 0 15.1417 24.883 8 9159
- 0.274179 15 24 tcp 1540 ------- 0 15.1421 24.887 10 8823
+ 0.275003 15 24 ack 40 ------- 0 15.686 1.1703 3 9275
+ 0.275131 15 24 tcp 1540 ------- 0 15.1417 24.883 9 9282
+ 0.275131 15 24 tcp 1540 ------- 0 15.1417 24.883 10 9283
d 0.275131 15 24 tcp 1540 ------- 0 15.1417 24.883 10 9283
+ 0.276634 15 24 tcp 1540 ------- 0 15.1417 24.883 11 9337
d 0.276634 15 24 tcp 1540 ------- 0 15.1417 24.883 11 9337
+ 0.276634 15 24 tcp 1540 ------- 0 15.1417 24.883 12 9338
d 0.276634 15 24 tcp 1540 ------- 0 15.1417 24.883 12 9338
- 0.276643 15 24 tcp 1540 ------- 0 15.1421 24.887 11 8919
r 0.27789 15 24 tcp 1540 ------- 0 14.1592 24.813 1 6797
r 0.277954 15 24 tcp 40 ------- 0 14.1536 21.778 0 7045
r 0.278018 15 24 tcp 40 ------- 0 14.1627 24.848 0 7610
r 0.278082 15 24 tcp 40 ------- 0 13.1504 21.760 0 7614
r 0.278582 15 24 ack 40 ------- 0 15.568 1.1585 0 7976
+ 0.279098 15 24 tcp 1540 ------- 0 15.1417 24.883 13 9460
+ 0.279098 15 24 tcp 1540 ------- 0 15.1417 24.883 14 9461
d 0.279098 15 24 tcp 1540 ------- 0 15.1417 24.883 14 9461
- 0.279107 15 24 tcp 1540 ------- 0 15.1421 24.887 12 8920
- 0.281571 15 24 tcp 1540 ------- 0 15.1421 24.887 13 9041
- 0.284035 15 24 tcp 1540 ------- 0 15.1421 24.887 14 9042
r 0.284051 15 24 tcp 1540 ------- 0 15.92 1.630 1 8090
+ 0.284722 15 24 ack 40 ------- 0 12.310 1.1299 1 9633
- 0.286499 15 24 ack 40 ------- 0 15.686 1.1703 3 9156
r 0.286515 15 24 tcp 1540 ------- 0 15.92 1.630 2 8091
- 0.286563 15 24 tcp 1540 ------- 0 15.1417 24.883 7 9158
+ 0.287186 15 24 ack 40 ------- 0 12.310 1.1299 2 9727
r 0.288979 15 24 tcp 1540 ------- 0 15.117 1.655 1 8200
- 0.289027 15 24 tcp 1540 ------- 0 15.1417 24.883 8 9159
+ 0.290882 15 24 ack 40 ------- 0 15.686 1.1703 3 9893
+ 0.290914 15 24 ack 40 ------- 0 12.366 1.1355 1 9840
r 0.291443 15 24 tcp 1540 ------- 0 15.117 1.655 2 8201
- 0.291491 15 24 ack 40 ------- 0 15.686 1.1703 3 9275
r 0.291507 15 24 tcp 40 ------- 0 12.57 1.573 0 8198
- 0.291555 15 24 tcp 1540 ------- 0 15.1417 24.883 9 9282
r 0.291571 15 24 ack 40 ------- 0 15.604 1.1621 0 8375
r 0.291635 15 24 tcp 40 ------- 0 15.101 1.639 0 8389
+ 0.293252 15 24 tcp 40 ------- 0 14.1581 24.802 0 9532
+ 0.293346 15 24 ack 40 ------- 0 15.686 1.1703 3 9981
+ 0.293538 15 24 tcp 1540 ------- 0 15.65 1.603 3 9995
+ 0.293538 15 24 tcp 1540 ------- 0 15.65 1.603 4 9996
- 0.294019 15 24 tcp 1540 ------- 0 15.1417 24.883 13 9460
r 0.294099 15 24 tcp 1540 ------- 0 12.47 1.563 3 8320
+ 0.294674 15 24 ack 40 ------- 0 12.366 1.1355 2 9980
+ 0.295874 15 24 tcp 1540 ------- 0 15.65 1.603 5 10101
d 0.295874 15 24 tcp 1540 ------- 0 15.65 1.603 5 10101
+ 0.295874 15 24 tcp 1540 ------- 0 15.65 1.603 6 10102
d 0.295874 15 24 tcp 1540 ------- 0 15.65 1.603 6 10102
+ 0.295938 15 24 tcp 1540 ------- 0 15.95 1.633 1 10108
d 0.295938 15 24 tcp 1540 ------- 0 15.95 1.633 1 10108
+ 0.295938 15 24 tcp 1540 ------- 0 15.95 1.633 2 10109
d 0.295938 15 24 tcp 1540 ------- 0 15.95 1.633 2 10109
- 0.296483 15 24 ack 40 ------- 0 12.310 1.1299 1 9633
- 0.296547 15 24 ack 40 ------- 0 12.310 1.1299 2 9727
r 0.296563 15 24 tcp 1540 ------- 0 12.47 1.563 4 8321
- 0.296611 15 24 ack 40 ------- 0 15.686 1.1703 3 9893
- 0.296675 15 24 ack 40 ------- 0 12.366 1.1355 1 9840
- 0.296739 15 24 tcp 40 ------- 0 14.1581 24.802 0 9532
- 0.296803 15 24 ack 40 ------- 0 15.686 1.1703 3 9981
- 0.296867 15 24 tcp 1540 ------- 0 15.65 1.603 3 9995
+ 0.298079 15 24 tcp 40 ------- 0 15.69 1.607 0 10214
r 0.299027 15 24 tcp 1540 ------- 0 12.47 1.563 5 8322
- 0.299331 15 24 tcp 1540 ------- 0 15.65 1.603 4 9996
r 0.301491 15 24 tcp 1540 ------- 0 12.47 1.563 6 8323
r 0.301555 15 24 tcp 40 ------- 0 15.1356 21.795 0 8605
- 0.301795 15 24 ack 40 ------- 0 12.366 1.1355 2 9980
- 0.301859 15 24 tcp 40 ------- 0 15.69 1.607 0 10214
+ 0.30333 15 24 tcp 1540 ------- 0 12.59 1.575 1 10305
- 0.30333 15 24 tcp 1540 ------- 0 12.59 1.575 1 10305
+ 0.303736 15 24 tcp 1540 ------- 0 15.1415 24.881 3 10441
+ 0.303736 15 24 tcp 1540 ------- 0 15.1415 24.881 4 10442
r 0.304019 15 24 tcp 1540 ------- 0 15.1421 24.887 7 8730
+ 0.304562 15 24 tcp 1540 ------- 0 12.59 1.575 2 10306
- 0.305794 15 24 tcp 1540 ------- 0 15.1415 24.881 3 10441
+ 0.3062 15 24 tcp 1540 ------- 0 15.1415 24.881 5 10548
+ 0.3062 15 24 tcp 1540 ------- 0 15.1415 24.881 6 10549
r 0.306483 15 24 tcp 1540 ------- 0 15.1421 24.887 8 8731
- 0.308258 15 24 tcp 1540 ------- 0 15.1415 24.881 4 10442
r 0.308947 15 24 tcp 1540 ---A--- 0 15.1371 21.810 1 8758
- 0.310722 15 24 tcp 1540 ------- 0 12.59 1.575 2 10306
r 0.311411 15 24 tcp 1540 ------- 0 15.1421 24.887 9 8822
- 0.313186 15 24 tcp 1540 ------- 0 15.1415 24.881 5 10548
+ 0.313282 15 24 ack 40 ------- 0 12.329 1.1318 1 10581
r 0.313875 15 24 tcp 1540 ------- 0 15.1421 24.887 10 8823
- 0.31565 15 24 tcp 1540 ------- 0 15.1415 24.881 6 10549
r 0.316339 15 24 tcp 1540 ------- 0 15.1421 24.887 11 8919
+ 0.317106 15 24 ack 40 ------- 0 12.329 1.1318 2 10927
+ 0.317138 15 24 ack 40 ------- 0 12.328 1.1317 0 10928
- 0.318114 15 24 ack 40 ------- 0 12.329 1.1318 1 10581
- 0.318178 15 24 ack 40 ------- 0 12.329 1.1318 2 10927
- 0.318242 15 24 ack 40 ------- 0 12.328 1.1317 0 10928
+ 0.318431 15 24 tcp 40 ------- 0 11.1410 24.776 0 10693
- 0.318431 15 24 tcp 40 ------- 0 11.1410 24.776 0 10693
r 0.318803 15 24 tcp 1540 ------- 0 15.1421 24.887 12 8920
+ 0.320401 15 24 ack 40 ------- 0 15.565 1.1582 3 11123
- 0.320401 15 24 ack 40 ------- 0 15.565 1.1582 3 11123
+ 0.320465 15 24 ack 40 ------- 0 15.1227 24.313 0 11127
- 0.320465 15 24 ack 40 ------- 0 15.1227 24.313 0 11127
+ 0.320847 15 24 tcp 40 ------- 0 15.1420 24.886 0 11150
- 0.320847 15 24 tcp 40 ------- 0 15.1420 24.886 0 11150
r 0.321267 15 24 tcp 1540 ------- 0 15.1421 24.887 13 9041
+ 0.322929 15 24 ack 40 ------- 0 15.565 1.1582 4 11230
- 0.322929 15 24 ack 40 ------- 0 15.565 1.1582 4 11230
r 0.323731 15 24 tcp 1540 ------- 0 15.1421 24.887 14 9042
r 0.323795 15 24 ack 40 ------- 0 15.686 1.1703 3 9156
r 0.326259 15 24 tcp 1540 ------- 0 15.1417 24.883 7 9158
+ 0.327588 15 24 tcp 40 ------- 0 15.1385 21.824 0 11401
- 0.327588 15 24 tcp 40 ------- 0 15.1385 21.824 0 11401
+ 0.327793 15 24 ack 40 ------- 0 15.565 1.1582 5 11411
- 0.327793 15 24 ack 40 ------- 0 15.565 1.1582 5 11411
r 0.328723 15 24 tcp 1540 ------- 0 15.1417 24.883 8 9159
r 0.328787 15 24 ack 40 ------- 0 15.686 1.1703 3 9275
+ 0.330257 15 24 ack 40 ------- 0 15.565 1.1582 6 11523
- 0.330257 15 24 ack 40 ------- 0 15.565 1.1582 6 11523
+ 0.330385 15 24 ack 40 ------- 0 15.554 1.1571 0 11527
- 0.330385 15 24 ack 40 ------- 0 15.554 1.1571 0 11527
+ 0.330449 15 24 tcp 1540 ------- 0 15.63 1.601 7 11532
+ 0.330449 15 24 tcp 1540 ------- 0 15.63 1.601 8 11533
- 0.330449 15 24 tcp 1540 ------- 0 15.63 1.601 7 11532
+ 0.330513 15 24 tcp 1540 ------- 0 15.63 1.601 9 11537
+ 0.330513 15 24 tcp 1540 ------- 0 15.63 1.601 10 11538
r 0.331251 15 24 tcp 1540 ------- 0 15.1417 24.883 9 9282
- 0.332913 15 24 tcp 1540 ------- 0 15.63 1.601 8 11533
+ 0.333233 15 24 ack 40 ------- 0 15.646 1.1663 0 11637
+ 0.333361 15 24 tcp 1540 ------- 0 15.63 1.601 11 11640
+ 0.333361 15 24 tcp 1540 ------- 0 15.63 1.601 12 11641
+ 0.333361 15 24 tcp 1540 ------- 0 15.63 1.601 13 11642
r 0.333715 15 24 tcp 1540 ------- 0 15.1417 24.883 13 9460
r 0.333779 15 24 ack 40 ------- 0 12.310 1.1299 1 9633
r 0.333843 15 24 ack 40 ------- 0 12.310 1.1299 2 9727
r 0.333907 15 24 ack 40 ------- 0 15.686 1.1703 3 9893
r 0.333971 15 24 ack 40 ------- 0 12.366 1.1355 1 9840
r 0.334035 15 24 tcp 40 ------- 0 14.1581 24.802 0 9532
r 0.334099 15 24 ack 40 ------- 0 15.686 1.1703 3 9981
- 0.335377 15 24 tcp 1540 ------- 0 15.63 1.601 9 11537
r 0.336563 15 24 tcp 1540 ------- 0 15.65 1.603 3 9995
- 0.337841 15 24 tcp 1540 ------- 0 15.63 1.601 10 11538
r 0.339027 15 24 tcp 1540 ------- 0 15.65 1.603 4 9996
r 0.339091 15 24 ack 40 ------- 0 12.366 1.1355 2 9980
r 0.339155 15 24 tcp 40 ------- 0 15.69 1.607 0 10214
- 0.340305 15 24 ack 40 ------- 0 15.646 1.1663 0 11637
- 0.340369 15 24 tcp 1540 ------- 0 15.63 1.601 11 11640
+ 0.341316 15 24 tcp 1540 ------- 0 15.1421 24.887 15 11976
+ 0.341316 15 24 tcp 1540 ------- 0 15.1421 24.887 16 11977
- 0.342833 15 24 tcp 1540 ------- 0 15.63 1.601 12 11641
r 0.343026 15 24 tcp 1540 ------- 0 12.59 1.575 1 10305
+ 0.34378 15 24 tcp 1540 ------- 0 15.1421 24.887 17 12090
+ 0.34378 15 24 tcp 1540 ------- 0 15.1421 24.887 18 12091
- 0.345297 15 24 tcp 1540 ------- 0 15.63 1.601 13 11642
r 0.34549 15 24 tcp 1540 ------- 0 15.1415 24.881 3 10441
+ 0.346054 15 24 tcp 1540 ------- 0 15.1239 16.696 1 12176
+ 0.346054 15 24 tcp 1540 ------- 0 15.1239 16.696 2 12177
- 0.347761 15 24 tcp 1540 ------- 0 15.1421 24.887 15 11976
r 0.347954 15 24 tcp 1540 ------- 0 15.1415 24.881 4 10442
+ 0.348646 15 24 ack 40 ------- 0 15.623 1.1640 0 12268
+ 0.34871 15 24 tcp 1540 ------- 0 15.1421 24.887 19 12271
+ 0.34871 15 24 tcp 1540 ------- 0 15.1421 24.887 20 12272
+ 0.349508 15 24 ack 40 ------- 0 13.460 1.1364 0 11363
+ 0.349636 15 24 tcp 40 ------- 0 14.1615 24.836 0 11436
d 0.349636 15 24 tcp 40 ------- 0 14.1615 24.836 0 11436
- 0.350225 15 24 tcp 1540 ------- 0 15.1421 24.887 16 11977
r 0.350418 15 24 tcp 1540 ------- 0 12.59 1.575 2 10306
+ 0.351172 15 24 tcp 1540 ------- 0 15.1421 24.887 21 12365
+ 0.351172 15 24 tcp 1540 ------- 0 15.1421 24.887 22 12366
d 0.351172 15 24 tcp 1540 ------- 0 15.1421 24.887 22 12366
- 0.352689 15 24 tcp 1540 ------- 0 15.1421 24.887 17 12090
r 0.352882 15 24 tcp 1540 ------- 0 15.1415 24.881 5 10548
+ 0.353092 15 24 ack 40 ------- 0 14.454 1.1502 0 12371
+ 0.353636 15 24 tcp 1540 ------- 0 15.1421 24.887 23 12466
d 0.353636 15 24 tcp 1540 ------- 0 15.1421 24.887 23 12466
+ 0.353636 15 24 tcp 1540 ------- 0 15.1421 24.887 24 12467
d 0.353636 15 24 tcp 1540 ------- 0 15.1421 24.887 24 12467
+ 0.353871 15 24 tcp 40 ------- 0 15.71 1.609 0 12475
d 0.353871 15 24 tcp 40 ------- 0 15.71 1.609 0 12475
+ 0.354479 15 24 tcp 1540 ------- 0 12.1281 24.790 1 12244
d 0.354479 15 24 tcp 1540 ------- 0 12.1281 24.790 1 12244
- 0.355153 15 24 tcp 1540 ------- 0 15.1421 24.887 18 12091
r 0.355346 15 24 tcp 1540 ------- 0 15.1415 24.881 6 10549
r 0.35541 15 24 ack 40 ------- 0 12.329 1.1318 1 10581
r 0.355474 15 24 ack 40 ------- 0 12.329 1.1318 2 10927
r 0.355538 15 24 ack 40 ------- 0 12.328 1.1317 0 10928
+ 0.355711 15 24 tcp 1540 ------- 0 12.1281 24.790 2 12245
r 0.355728 15 24 tcp 40 ------- 0 11.1410 24.776 0 10693
+ 0.3561 15 24 tcp 1540 ------- 0 15.1421 24.887 25 12550
d 0.3561 15 24 tcp 1540 ------- 0 15.1421 24.887 25 12550
+ 0.3561 15 24 tcp 1540 ------- 0 15.1421 24.887 26 12551
d 0.3561 15 24 tcp 1540 ------- 0 15.1421 24.887 26 12551
- 0.357617 15 24 tcp 1540 ------- 0 15.1239 16.696 1 12176
r 0.357697 15 24 ack 40 ------- 0 15.565 1.1582 3 11123
r 0.357761 15 24 ack 40 ------- 0 15.1227 24.313 0 11127
r 0.358143 15 24 tcp 40 ------- 0 15.1420 24.886 0 11150
+ 0.358566 15 24 ack 40 ------- 0 15.520 1.1537 1 12652
+ 0.35863 15 24 tcp 1540 ------- 0 15.1421 24.887 27 12653
d 0.35863 15 24 tcp 1540 ------- 0 15.1421 24.887 27 12653
+ 0.35863 15 24 tcp 1540 ------- 0 15.1421 24.887 28 12654
d 0.35863 15 24 tcp 1540 ------- 0 15.1421 24.887 28 12654
- 0.360081 15 24 tcp 1540 ------- 0 15.1239 16.696 2 12177
r 0.360225 15 24 ack 40 ------- 0 15.565 1.1582 4 11230
+ 0.361094 15 24 ack 40 ------- 0 15.546 1.1563 1 12729
+ 0.361222 15 24 tcp 1540 ------- 0 15.1421 24.887 29 12737
d 0.361222 15 24 tcp 1540 ------- 0 15.1421 24.887 29 12737
+ 0.361222 15 24 tcp 1540 ------- 0 15.1421 24.887 30 12738
d 0.361222 15 24 tcp 1540 ------- 0 15.1421 24.887 30 12738
- 0.362545 15 24 ack 40 ------- 0 15.623 1.1640 0 12268
- 0.362609 15 24 tcp 1540 ------- 0 15.1421 24.887 19 12271
+ 0.363878 15 24 tcp 1540 ------- 0 15.1417 24.883 15 12857
+ 0.363878 15 24 tcp 1540 ------- 0 15.1417 24.883 16 12858
+ 0.364668 15 24 tcp 40 ------- 0 15.1258 16.715 0 12883
d 0.364668 15 24 tcp 40 ------- 0 15.1258 16.715 0 12883
r 0.364884 15 24 tcp 40 ------- 0 15.1385 21.824 0 11401
- 0.365073 15 24 tcp 1540 ------- 0 15.1421 24.887 20 12272
r 0.365089 15 24 ack 40 ------- 0 15.565 1.1582 5 11411
+ 0.366342 15 24 ack 40 ------- 0 15.608 1.1625 1 12944
+ 0.366406 15 24 tcp 1540 ------- 0 15.1417 24.883 17 12946
d 0.366406 15 24 tcp 1540 ------- 0 15.1417 24.883 17 12946
+ 0.366406 15 24 tcp 1540 ------- 0 15.1417 24.883 18 12947
d 0.366406 15 24 tcp 1540 ------- 0 15.1417 24.883 18 12947
- 0.367537 15 24 ack 40 ------- 0 13.460 1.1364 0 11363
r 0.367553 15 24 ack 40 ------- 0 15.565 1.1582 6 11523
- 0.367601 15 24 tcp 1540 ------- 0 15.1421 24.887 21 12365
r 0.367681 15 24 ack 40 ------- 0 15.554 1.1571 0 11527
+ 0.36887 15 24 ack 40 ------- 0 15.608 1.1625 2 13032
+ 0.368934 15 24 ack 40 ------- 0 15.656 1.1673 0 13033
+ 0.369062 15 24 tcp 1540 ------- 0 15.68 1.606 1 13041
d 0.369062 15 24 tcp 1540 ------- 0 15.68 1.606 1 13041
+ 0.369062 15 24 tcp 1540 ------- 0 15.68 1.606 2 13042
d 0.369062 15 24 tcp 1540 ------- 0 15.68 1.606 2 13042
+ 0.369126 15 24 ack 40 ------- 0 15.1073 16.440 0 13045
d 0.369126 15 24 ack 40 ------- 0 15.1073 16.440 0 13045
+ 0.36919 15 24 tcp 1540 ------- 0 15.1417 24.883 19 13048
d 0.36919 15 24 tcp 1540 ------- 0 15.1417 24.883 19 13048
+ 0.36919 15 24 tcp 1540 ------- 0 15.1417 24.883 20 13049
d 0.36919 15 24 tcp 1540 ------- 0 15.1417 24.883 20 13049
- 0.370065 15 24 ack 40 ------- 0 14.454 1.1502 0 12371
- 0.370129 15 24 tcp 1540 ------- 0 12.1281 24.790 2 12245
r 0.370145 15 24 tcp 1540 ------- 0 15.63 1.601 7 11532
+ 0.371012 15 24 tcp 1540 ------- 0 15.1417 24.883 21 13109
- 0.372593 15 24 ack 40 ------- 0 15.520 1.1537 1 12652
r 0.372609 15 24 tcp 1540 ------- 0 15.63 1.601 8 11533
- 0.372657 15 24 ack 40 ------- 0 15.546 1.1563 1 12729
- 0.372721 15 24 tcp 1540 ------- 0 15.1417 24.883 15 12857
+ 0.375058 15 24 tcp 40 ------- 0 15.1259 16.716 0 13284
r 0.375073 15 24 tcp 1540 ------- 0 15.63 1.601 9 11537
- 0.375185 15 24 tcp 1540 ------- 0 15.1417 24.883 16 12858
+ 0.37581 15 24 ack 40 ------- 0 11.1022 24.288 0 12707
+ 0.376717 15 24 tcp 40 ------- 0 5.1598 24.707 0 12688
r 0.377537 15 24 tcp 1540 ------- 0 15.63 1.601 10 11538
r 0.377601 15 24 ack 40 ------- 0 15.646 1.1663 0 11637
- 0.377649 15 24 ack 40 ------- 0 15.608 1.1625 1 12944
- 0.377713 15 24 ack 40 ------- 0 15.608 1.1625 2 13032
- 0.377777 15 24 ack 40 ------- 0 15.656 1.1673 0 13033
- 0.377841 15 24 tcp 1540 ------- 0 15.1417 24.883 21 13109
r 0.380065 15 24 tcp 1540 ------- 0 15.63 1.601 11 11640
- 0.380305 15 24 tcp 40 ------- 0 15.1259 16.716 0 13284
- 0.380369 15 24 ack 40 ------- 0 11.1022 24.288 0 12707
- 0.380433 15 24 tcp 40 ------- 0 5.1598 24.707 0 12688
r 0.382529 15 24 tcp 1540 ------- 0 15.63 1.601 12 11641
+ 0.38349 15 24 tcp 1540 ------- 0 12.50 1.566 1 13518
- 0.38349 15 24 tcp 1540 ------- 0 12.50 1.566 1 13518
+ 0.384604 15 24 tcp 1540 ------- 0 15.1415 24.881 7 13676
+ 0.384604 15 24 tcp 1540 ------- 0 15.1415 24.881 8 13677
+ 0.384722 15 24 tcp 1540 ------- 0 12.50 1.566 2 13519
r 0.384993 15 24 tcp 1540 ------- 0 15.63 1.601 13 11642
+ 0.385251 15 24 tcp 1540 ------- 0 15.1415 24.881 9 13697
+ 0.385251 15 24 tcp 1540 ------- 0 15.1415 24.881 10 13698
- 0.385954 15 24 tcp 1540 ------- 0 15.1415 24.881 7 13676
r 0.387457 15 24 tcp 1540 ------- 0 15.1421 24.887 15 11976
- 0.388418 15 24 tcp 1540 ------- 0 15.1415 24.881 8 13677
+ 0.389636 15 24 tcp 40 ------- 0 14.1633 24.854 0 13391
+ 0.38966 15 24 tcp 40 ------- 0 20.1407 24.989 0 8825
r 0.389921 15 24 tcp 1540 ------- 0 15.1421 24.887 16 11977
+ 0.390179 15 24 tcp 1540 ------- 0 15.1415 24.881 11 13928
+ 0.390179 15 24 tcp 1540 ------- 0 15.1415 24.881 12 13929
- 0.390882 15 24 tcp 1540 ------- 0 12.50 1.566 2 13519
r 0.392385 15 24 tcp 1540 ------- 0 15.1421 24.887 17 12090
+ 0.392643 15 24 tcp 1540 ------- 0 15.1415 24.881 13 14037
+ 0.392643 15 24 tcp 1540 ------- 0 15.1415 24.881 14 14038
- 0.393346 15 24 tcp 1540 ------- 0 15.1415 24.881 9 13697
r 0.394849 15 24 tcp 1540 ------- 0 15.1421 24.887 18 12091
+ 0.394948 15 24 ack 40 ------- 0 13.521 1.1425 0 12955
- 0.39581 15 24 tcp 1540 ------- 0 15.1415 24.881 10 13698
r 0.397313 15 24 tcp 1540 ------- 0 15.1239 16.696 1 12176
+ 0.397457 15 24 ack 40 ------- 0 15.1227 24.313 1 14224