+ 0.006498 3 21 rtProtoDV 26 ------- 0 3.1518 21.1182 -1 140
- 0.006498 3 21 rtProtoDV 26 ------- 0 3.1518 21.1182 -1 140
r 0.009595 3 21 rtProtoDV 26 ------- 0 3.1518 21.1182 -1 140
+ 0.009825 3 21 rtProtoDV 26 ------- 0 3.1518 21.1182 -1 280
- 0.009825 3 21 rtProtoDV 26 ------- 0 3.1518 21.1182 -1 280
+ 0.010657 3 21 rtProtoDV 26 ------- 0 3.1518 21.1182 -1 338
- 0.010657 3 21 rtProtoDV 26 ------- 0 3.1518 21.1182 -1 338
+ 0.011304 3 21 rtProtoDV 26 ------- 0 3.1518 21.1182 -1 384
- 0.011304 3 21 rtProtoDV 26 ------- 0 3.1518 21.1182 -1 384
+ 0.012269 3 21 rtProtoDV 26 ------- 0 3.1518 21.1182 -1 434
- 0.012269 3 21 rtProtoDV 26 ------- 0 3.1518 21.1182 -1 434
r 0.012921 3 21 rtProtoDV 26 ------- 0 3.1518 21.1182 -1 280
r 0.013753 3 21 rtProtoDV 26 ------- 0 3.1518 21.1182 -1 338
r 0.0144 3 21 rtProtoDV 26 ------- 0 3.1518 21.1182 -1 384
r 0.015366 3 21 rtProtoDV 26 ------- 0 3.1518 21.1182 -1 434
+ 0.017241 3 21 rtProtoDV 26 ------- 0 3.1518 21.1182 -1 652
- 0.017241 3 21 rtProtoDV 26 ------- 0 3.1518 21.1182 -1 652
r 0.020337 3 21 rtProtoDV 26 ------- 0 3.1518 21.1182 -1 652
+ 0.020872 3 21 rtProtoDV 26 ------- 0 3.1518 21.1182 -1 764
- 0.020872 3 21 rtProtoDV 26 ------- 0 3.1518 21.1182 -1 764
+ 0.020977 3 21 rtProtoDV 26 ------- 0 3.1518 21.1182 -1 770
- 0.020977 3 21 rtProtoDV 26 ------- 0 3.1518 21.1182 -1 770
+ 0.023 3 21 rtProtoDV 26 ------- 0 3.1518 21.1182 -1 834
- 0.023 3 21 rtProtoDV 26 ------- 0 3.1518 21.1182 -1 834
+ 0.023243 3 21 rtProtoDV 26 ------- 0 3.1518 21.1182 -1 840
- 0.023243 3 21 rtProtoDV 26 ------- 0 3.1518 21.1182 -1 840
r 0.023968 3 21 rtProtoDV 26 ------- 0 3.1518 21.1182 -1 764
r 0.024074 3 21 rtProtoDV 26 ------- 0 3.1518 21.1182 -1 770
r 0.026097 3 21 rtProtoDV 26 ------- 0 3.1518 21.1182 -1 834
r 0.026339 3 21 rtProtoDV 26 ------- 0 3.1518 21.1182 -1 840
+ 0.044061 3 21 rtProtoDV 26 ------- 0 3.1518 21.1182 -1 1335
- 0.044061 3 21 rtProtoDV 26 ------- 0 3.1518 21.1182 -1 1335
r 0.047158 3 21 rtProtoDV 26 ------- 0 3.1518 21.1182 -1 1335
+ 0.067261 3 21 ack 40 ------- 0 3.694 21.198 0 1947
- 0.067261 3 21 ack 40 ------- 0 3.694 21.198 0 1947
+ 0.06759 3 21 tcp 40 ------- 0 22.598 21.928 0 1187
- 0.06759 3 21 tcp 40 ------- 0 22.598 21.928 0 1187
r 0.070402 3 21 ack 40 ------- 0 3.694 21.198 0 1947
r 0.070731 3 21 tcp 40 ------- 0 22.598 21.928 0 1187
+ 0.086194 3 21 ack 40 ------- 0 3.694 21.198 1 2604
- 0.086194 3 21 ack 40 ------- 0 3.694 21.198 1 2604
+ 0.087047 3 21 ack 40 ------- 0 5.925 21.220 0 2392
- 0.087047 3 21 ack 40 ------- 0 5.925 21.220 0 2392
r 0.089335 3 21 ack 40 ------- 0 3.694 21.198 1 2604
r 0.090188 3 21 ack 40 ------- 0 5.925 21.220 0 2392
+ 0.091122 3 21 ack 40 ------- 0 3.694 21.198 2 2771
- 0.091122 3 21 ack 40 ------- 0 3.694 21.198 2 2771
r 0.094263 3 21 ack 40 ------- 0 3.694 21.198 2 2771
+ 0.099838 3 21 tcp 40 ------- 0 3.1376 21.569 0 3039
- 0.099838 3 21 tcp 40 ------- 0 3.1376 21.569 0 3039
r 0.102979 3 21 tcp 40 ------- 0 3.1376 21.569 0 3039
+ 0.116229 3 21 ack 40 ------- 0 3.694 21.198 3 3561
- 0.116229 3 21 ack 40 ------- 0 3.694 21.198 3 3561
r 0.11937 3 21 ack 40 ------- 0 3.694 21.198 3 3561
+ 0.121157 3 21 ack 40 ------- 0 3.694 21.198 4 3710
- 0.121157 3 21 ack 40 ------- 0 3.694 21.198 4 3710
r 0.124298 3 21 ack 40 ------- 0 3.694 21.198 4 3710
+ 0.136069 3 21 ack 40 ------- 0 3.694 21.198 5 4199
- 0.136069 3 21 ack 40 ------- 0 3.694 21.198 5 4199
r 0.13921 3 21 ack 40 ------- 0 3.694 21.198 5 4199
+ 0.140997 3 21 ack 40 ------- 0 3.694 21.198 6 4349
- 0.140997 3 21 ack 40 ------- 0 3.694 21.198 6 4349
+ 0.141464 3 21 tcp 1540 ------- 0 3.1376 21.569 1 4364
- 0.141464 3 21 tcp 1540 ------- 0 3.1376 21.569 1 4364
+ 0.141464 3 21 tcp 1540 ------- 0 3.1376 21.569 2 4365
+ 0.142068 3 21 ack 40 ------- 0 5.925 21.220 1 4137
r 0.144138 3 21 ack 40 ------- 0 3.694 21.198 6 4349
- 0.146392 3 21 tcp 1540 ------- 0 3.1376 21.569 2 4365
r 0.149405 3 21 tcp 1540 ------- 0 3.1376 21.569 1 4364
- 0.15132 3 21 ack 40 ------- 0 5.925 21.220 1 4137
+ 0.15202 3 21 ack 40 ------- 0 5.925 21.220 2 4292
- 0.15202 3 21 ack 40 ------- 0 5.925 21.220 2 4292
r 0.154333 3 21 tcp 1540 ------- 0 3.1376 21.569 2 4365
r 0.154461 3 21 ack 40 ------- 0 5.925 21.220 1 4137
r 0.155161 3 21 ack 40 ------- 0 5.925 21.220 2 4292
+ 0.165058 3 21 ack 40 ------- 0 25.693 21.1177 0 4753
- 0.165058 3 21 ack 40 ------- 0 25.693 21.1177 0 4753
+ 0.167339 3 21 ack 40 ------- 0 3.694 21.198 7 5318
- 0.167339 3 21 ack 40 ------- 0 3.694 21.198 7 5318
r 0.168199 3 21 ack 40 ------- 0 25.693 21.1177 0 4753
r 0.17048 3 21 ack 40 ------- 0 3.694 21.198 7 5318
+ 0.172267 3 21 ack 40 ------- 0 3.694 21.198 8 5557
- 0.172267 3 21 ack 40 ------- 0 3.694 21.198 8 5557
r 0.175408 3 21 ack 40 ------- 0 3.694 21.198 8 5557
+ 0.18493 3 21 ack 40 ------- 0 25.642 21.1126 0 5109
- 0.18493 3 21 ack 40 ------- 0 25.642 21.1126 0 5109
+ 0.184962 3 21 ack 40 ------- 0 25.662 21.1146 0 5123
- 0.185058 3 21 ack 40 ------- 0 25.662 21.1146 0 5123
+ 0.187051 3 21 ack 40 ------- 0 3.694 21.198 9 6037
- 0.187051 3 21 ack 40 ------- 0 3.694 21.198 9 6037
r 0.188071 3 21 ack 40 ------- 0 25.642 21.1126 0 5109
r 0.188199 3 21 ack 40 ------- 0 25.662 21.1146 0 5123
r 0.190192 3 21 ack 40 ------- 0 3.694 21.198 9 6037
+ 0.191979 3 21 ack 40 ------- 0 3.694 21.198 10 6208
- 0.191979 3 21 ack 40 ------- 0 3.694 21.198 10 6208
r 0.19512 3 21 ack 40 ------- 0 3.694 21.198 10 6208
+ 0.207147 3 21 ack 40 ------- 0 3.694 21.198 11 6775
- 0.207147 3 21 ack 40 ------- 0 3.694 21.198 11 6775
r 0.210288 3 21 ack 40 ------- 0 3.694 21.198 11 6775
+ 0.212075 3 21 ack 40 ------- 0 3.694 21.198 12 6926
- 0.212075 3 21 ack 40 ------- 0 3.694 21.198 12 6926
r 0.215216 3 21 ack 40 ------- 0 3.694 21.198 12 6926
+ 0.217259 3 21 ack 40 ------- 0 3.694 21.198 13 7125
- 0.217259 3 21 ack 40 ------- 0 3.694 21.198 13 7125
r 0.2204 3 21 ack 40 ------- 0 3.694 21.198 13 7125
+ 0.222187 3 21 ack 40 ------- 0 3.694 21.198 14 7296
- 0.222187 3 21 ack 40 ------- 0 3.694 21.198 14 7296
r 0.225328 3 21 ack 40 ------- 0 3.694 21.198 14 7296
+ 0.242283 3 21 tcp 1540 ------- 0 3.1376 21.569 3 8023
- 0.242283 3 21 tcp 1540 ------- 0 3.1376 21.569 3 8023
+ 0.242283 3 21 tcp 1540 ------- 0 3.1376 21.569 4 8024
+ 0.242411 3 21 tcp 1540 ------- 0 3.1376 21.569 5 8033
+ 0.242411 3 21 tcp 1540 ------- 0 3.1376 21.569 6 8034
+ 0.24717 3 21 tcp 40 ------- 0 20.1377 21.921 0 6468
- 0.247211 3 21 tcp 1540 ------- 0 3.1376 21.569 4 8024
r 0.250224 3 21 tcp 1540 ------- 0 3.1376 21.569 3 8023
+ 0.25213 3 21 ack 40 ------- 0 20.1283 21.454 0 6572
- 0.252139 3 21 tcp 1540 ------- 0 3.1376 21.569 5 8033
r 0.255152 3 21 tcp 1540 ------- 0 3.1376 21.569 4 8024
- 0.257067 3 21 tcp 1540 ------- 0 3.1376 21.569 6 8034
r 0.26008 3 21 tcp 1540 ------- 0 3.1376 21.569 5 8033
- 0.261995 3 21 tcp 40 ------- 0 20.1377 21.921 0 6468
- 0.262123 3 21 ack 40 ------- 0 20.1283 21.454 0 6572
r 0.265008 3 21 tcp 1540 ------- 0 3.1376 21.569 6 8034
r 0.265136 3 21 tcp 40 ------- 0 20.1377 21.921 0 6468
r 0.265264 3 21 ack 40 ------- 0 20.1283 21.454 0 6572
+ 0.274626 3 21 ack 40 ------- 0 25.646 21.1130 0 7483
- 0.274626 3 21 ack 40 ------- 0 25.646 21.1130 0 7483
r 0.277767 3 21 ack 40 ------- 0 25.646 21.1130 0 7483
+ 0.277803 3 21 ack 40 ------- 0 3.694 21.198 15 9385
- 0.277803 3 21 ack 40 ------- 0 3.694 21.198 15 9385
r 0.280944 3 21 ack 40 ------- 0 3.694 21.198 15 9385
+ 0.282082 3 21 ack 40 ------- 0 25.637 21.1121 0 7789
- 0.282082 3 21 ack 40 ------- 0 25.637 21.1121 0 7789
+ 0.282338 3 21 tcp 40 ------- 0 22.641 21.971 0 2225
- 0.282338 3 21 tcp 40 ------- 0 22.641 21.971 0 2225
+ 0.282731 3 21 ack 40 ------- 0 3.694 21.198 16 9606
- 0.282731 3 21 ack 40 ------- 0 3.694 21.198 16 9606
r 0.285223 3 21 ack 40 ------- 0 25.637 21.1121 0 7789
r 0.285479 3 21 tcp 40 ------- 0 22.641 21.971 0 2225
r 0.285872 3 21 ack 40 ------- 0 3.694 21.198 16 9606
+ 0.288126 3 21 ack 40 ------- 0 3.694 21.198 17 9800
- 0.288126 3 21 ack 40 ------- 0 3.694 21.198 17 9800
r 0.291267 3 21 ack 40 ------- 0 3.694 21.198 17 9800
+ 0.293054 3 21 ack 40 ------- 0 3.694 21.198 18 9968
- 0.293054 3 21 ack 40 ------- 0 3.694 21.198 18 9968
r 0.296195 3 21 ack 40 ------- 0 3.694 21.198 18 9968
+ 0.299682 3 21 ack 40 ------- 0 5.925 21.220 3 8485
- 0.299682 3 21 ack 40 ------- 0 5.925 21.220 3 8485
r 0.302823 3 21 ack 40 ------- 0 5.925 21.220 3 8485
+ 0.304642 3 21 ack 40 ------- 0 5.925 21.220 4 8654
- 0.304642 3 21 ack 40 ------- 0 5.925 21.220 4 8654
r 0.307783 3 21 ack 40 ------- 0 5.925 21.220 4 8654
+ 0.309634 3 21 ack 40 ------- 0 5.925 21.220 5 8835
- 0.309634 3 21 ack 40 ------- 0 5.925 21.220 5 8835
r 0.312775 3 21 ack 40 ------- 0 5.925 21.220 5 8835
+ 0.314626 3 21 ack 40 ------- 0 5.925 21.220 6 9052
- 0.314626 3 21 ack 40 ------- 0 5.925 21.220 6 9052
r 0.317767 3 21 ack 40 ------- 0 5.925 21.220 6 9052
+ 0.319618 3 21 ack 40 ------- 0 25.651 21.1135 0 9127
- 0.319618 3 21 ack 40 ------- 0 25.651 21.1135 0 9127
r 0.322759 3 21 ack 40 ------- 0 25.651 21.1135 0 9127
+ 0.32461 3 21 ack 40 ------- 0 5.936 21.231 0 9554
- 0.32461 3 21 ack 40 ------- 0 5.936 21.231 0 9554
r 0.327751 3 21 ack 40 ------- 0 5.936 21.231 0 9554
+ 0.342334 3 21 ack 40 ------- 0 3.694 21.198 19 12025
- 0.342334 3 21 ack 40 ------- 0 3.694 21.198 19 12025
r 0.345475 3 21 ack 40 ------- 0 3.694 21.198 19 12025
+ 0.347262 3 21 ack 40 ------- 0 3.694 21.198 20 12215
- 0.347262 3 21 ack 40 ------- 0 3.694 21.198 20 12215
r 0.350403 3 21 ack 40 ------- 0 3.694 21.198 20 12215
+ 0.352318 3 21 ack 40 ------- 0 3.694 21.198 21 12423
- 0.352318 3 21 ack 40 ------- 0 3.694 21.198 21 12423
r 0.355459 3 21 ack 40 ------- 0 3.694 21.198 21 12423
+ 0.35763 3 21 ack 40 ------- 0 3.694 21.198 21 12633
- 0.35763 3 21 ack 40 ------- 0 3.694 21.198 21 12633
r 0.360771 3 21 ack 40 ------- 0 3.694 21.198 21 12633
+ 0.362558 3 21 ack 40 ------- 0 3.694 21.198 21 12817
- 0.362558 3 21 ack 40 ------- 0 3.694 21.198 21 12817
r 0.365699 3 21 ack 40 ------- 0 3.694 21.198 21 12817
+ 0.367614 3 21 ack 40 ------- 0 3.694 21.198 21 12989
- 0.367614 3 21 ack 40 ------- 0 3.694 21.198 21 12989
r 0.370755 3 21 ack 40 ------- 0 3.694 21.198 21 12989
+ 0.372002 3 21 ack 40 ------- 0 25.693 21.1177 1 11515
- 0.372002 3 21 ack 40 ------- 0 25.693 21.1177 1 11515
+ 0.372542 3 21 ack 40 ------- 0 3.694 21.198 21 13176
- 0.372542 3 21 ack 40 ------- 0 3.694 21.198 21 13176
r 0.375143 3 21 ack 40 ------- 0 25.693 21.1177 1 11515
r 0.375683 3 21 ack 40 ------- 0 3.694 21.198 21 13176
+ 0.37747 3 21 ack 40 ------- 0 3.694 21.198 21 13388
- 0.37747 3 21 ack 40 ------- 0 3.694 21.198 21 13388
r 0.380611 3 21 ack 40 ------- 0 3.694 21.198 21 13388
+ 0.382398 3 21 ack 40 ------- 0 3.694 21.198 21 13575
- 0.382398 3 21 ack 40 ------- 0 3.694 21.198 21 13575
r 0.385539 3 21 ack 40 ------- 0 3.694 21.198 21 13575
+ 0.392894 3 21 tcp 1540 ------- 0 3.1376 21.569 7 14048
- 0.392894 3 21 tcp 1540 ------- 0 3.1376 21.569 7 14048
+ 0.392894 3 21 tcp 1540 ------- 0 3.1376 21.569 8 14049
+ 0.39315 3 21 tcp 1540 ------- 0 3.1376 21.569 9 14056
+ 0.39315 3 21 tcp 1540 ------- 0 3.1376 21.569 10 14057
+ 0.397058 3 21 ack 40 ------- 0 25.642 21.1126 1 12859
- 0.397822 3 21 tcp 1540 ------- 0 3.1376 21.569 8 14049
r 0.400835 3 21 tcp 1540 ------- 0 3.1376 21.569 7 14048
+ 0.402082 3 21 ack 40 ------- 0 25.642 21.1126 2 12949
- 0.40275 3 21 tcp 1540 ------- 0 3.1376 21.569 9 14056
+ 0.403262 3 21 tcp 1540 ------- 0 3.1376 21.569 11 14484
+ 0.403262 3 21 tcp 1540 ------- 0 3.1376 21.569 12 14485
r 0.405763 3 21 tcp 1540 ------- 0 3.1376 21.569 8 14049
- 0.407678 3 21 tcp 1540 ------- 0 3.1376 21.569 10 14057
r 0.410691 3 21 tcp 1540 ------- 0 3.1376 21.569 9 14056
- 0.412606 3 21 ack 40 ------- 0 25.642 21.1126 1 12859
- 0.412734 3 21 ack 40 ------- 0 25.642 21.1126 2 12949
- 0.412862 3 21 tcp 1540 ------- 0 3.1376 21.569 11 14484
+ 0.413374 3 21 tcp 1540 ------- 0 3.1376 21.569 13 14869
+ 0.413374 3 21 tcp 1540 ------- 0 3.1376 21.569 14 14870
+ 0.41363 3 21 ack 40 ------- 0 3.677 21.181 0 14880
r 0.415619 3 21 tcp 1540 ------- 0 3.1376 21.569 10 14057
r 0.415747 3 21 ack 40 ------- 0 25.642 21.1126 1 12859
r 0.415875 3 21 ack 40 ------- 0 25.642 21.1126 2 12949
+ 0.416994 3 21 ack 40 ------- 0 25.662 21.1146 1 13338
- 0.41779 3 21 tcp 1540 ------- 0 3.1376 21.569 12 14485
+ 0.418686 3 21 ack 40 ------- 0 3.694 21.198 21 15075
r 0.420803 3 21 tcp 1540 ------- 0 3.1376 21.569 11 14484
- 0.422718 3 21 tcp 1540 ------- 0 3.1376 21.569 13 14869
+ 0.423614 3 21 ack 40 ------- 0 3.694 21.198 21 15275
r 0.425731 3 21 tcp 1540 ------- 0 3.1376 21.569 12 14485
- 0.427646 3 21 tcp 1540 ------- 0 3.1376 21.569 14 14870
r 0.430659 3 21 tcp 1540 ------- 0 3.1376 21.569 13 14869
+ 0.430834 3 21 ack 40 ------- 0 25.612 21.1096 0 13865
- 0.432574 3 21 ack 40 ------- 0 3.677 21.181 0 14880
- 0.432702 3 21 ack 40 ------- 0 25.662 21.1146 1 13338
- 0.43283 3 21 ack 40 ------- 0 3.694 21.198 21 15075
- 0.432958 3 21 ack 40 ------- 0 3.694 21.198 21 15275
- 0.433086 3 21 ack 40 ------- 0 25.612 21.1096 0 13865
+ 0.433854 3 21 ack 40 ------- 0 3.694 21.198 21 15661
- 0.433854 3 21 ack 40 ------- 0 3.694 21.198 21 15661
r 0.435587 3 21 tcp 1540 ------- 0 3.1376 21.569 14 14870
r 0.435715 3 21 ack 40 ------- 0 3.677 21.181 0 14880
r 0.435843 3 21 ack 40 ------- 0 25.662 21.1146 1 13338
r 0.435971 3 21 ack 40 ------- 0 3.694 21.198 21 15075
r 0.436099 3 21 ack 40 ------- 0 3.694 21.198 21 15275
r 0.436227 3 21 ack 40 ------- 0 25.612 21.1096 0 13865
r 0.436995 3 21 ack 40 ------- 0 3.694 21.198 21 15661
+ 0.438782 3 21 ack 40 ------- 0 3.694 21.198 21 15847
- 0.438782 3 21 ack 40 ------- 0 3.694 21.198 21 15847
r 0.441923 3 21 ack 40 ------- 0 3.694 21.198 21 15847
+ 0.44915 3 21 ack 40 ------- 0 3.654 21.158 0 16281
- 0.44915 3 21 ack 40 ------- 0 3.654 21.158 0 16281
r 0.452291 3 21 ack 40 ------- 0 3.654 21.158 0 16281
+ 0.459134 3 21 ack 40 ------- 0 3.651 21.155 0 16724
- 0.459134 3 21 ack 40 ------- 0 3.651 21.155 0 16724
r 0.462275 3 21 ack 40 ------- 0 3.651 21.155 0 16724
+ 0.464062 3 21 ack 40 ------- 0 3.694 21.198 21 16889
- 0.464062 3 21 ack 40 ------- 0 3.694 21.198 21 16889
r 0.467203 3 21 ack 40 ------- 0 3.694 21.198 21 16889
+ 0.469118 3 21 ack 40 ------- 0 3.694 21.198 21 17093
- 0.469118 3 21 ack 40 ------- 0 3.694 21.198 21 17093
r 0.472259 3 21 ack 40 ------- 0 3.694 21.198 21 17093
+ 0.474174 3 21 ack 40 ------- 0 3.694 21.198 21 17323
- 0.474174 3 21 ack 40 ------- 0 3.694 21.198 21 17323
r 0.477315 3 21 ack 40 ------- 0 3.694 21.198 21 17323
+ 0.482262 3 21 ack 40 ------- 0 25.692 21.1176 0 15994
- 0.482262 3 21 ack 40 ------- 0 25.692 21.1176 0 15994
+ 0.484286 3 21 ack 40 ------- 0 3.694 21.198 25 17741
- 0.484286 3 21 ack 40 ------- 0 3.694 21.198 25 17741
+ 0.484542 3 21 ack 40 ------- 0 3.634 21.138 0 17753
- 0.484542 3 21 ack 40 ------- 0 3.634 21.138 0 17753
r 0.485403 3 21 ack 40 ------- 0 25.692 21.1176 0 15994
r 0.487427 3 21 ack 40 ------- 0 3.694 21.198 25 17741
r 0.487683 3 21 ack 40 ------- 0 3.634 21.138 0 17753
+ 0.48855 3 21 ack 40 ------- 0 5.925 21.220 6 16400
- 0.48855 3 21 ack 40 ------- 0 5.925 21.220 6 16400
+ 0.49011 3 21 tcp 1540 ------- 0 3.1376 21.569 15 17953
- 0.49011 3 21 tcp 1540 ------- 0 3.1376 21.569 15 17953
+ 0.49011 3 21 tcp 1540 ------- 0 3.1376 21.569 16 17954
+ 0.490238 3 21 tcp 1540 ------- 0 3.1376 21.569 17 17960
+ 0.490238 3 21 tcp 1540 ------- 0 3.1376 21.569 18 17961
+ 0.490494 3 21 tcp 1540 ------- 0 3.1376 21.569 19 17975
+ 0.490494 3 21 tcp 1540 ------- 0 3.1376 21.569 20 17976
r 0.491691 3 21 ack 40 ------- 0 5.925 21.220 6 16400
- 0.495038 3 21 tcp 1540 ------- 0 3.1376 21.569 16 17954
r 0.498051 3 21 tcp 1540 ------- 0 3.1376 21.569 15 17953
- 0.499966 3 21 tcp 1540 ------- 0 3.1376 21.569 17 17960
+ 0.502545 3 21 tcp 40 ------- 0 3.1388 21.581 0 18507
r 0.502979 3 21 tcp 1540 ------- 0 3.1376 21.569 16 17954
- 0.504894 3 21 tcp 1540 ------- 0 3.1376 21.569 18 17961
r 0.507907 3 21 tcp 1540 ------- 0 3.1376 21.569 17 17960
- 0.509822 3 21 tcp 1540 ------- 0 3.1376 21.569 19 17975
+ 0.510462 3 21 tcp 1540 ------- 0 3.1376 21.569 21 18787
+ 0.510462 3 21 tcp 1540 ------- 0 3.1376 21.569 22 18788
r 0.512835 3 21 tcp 1540 ------- 0 3.1376 21.569 18 17961
+ 0.513606 3 21 ack 40 ------- 0 5.923 21.218 0 17404
- 0.51475 3 21 tcp 1540 ------- 0 3.1376 21.569 20 17976
+ 0.516102 3 21 ack 40 ------- 0 20.1241 21.412 0 17097
r 0.517763 3 21 tcp 1540 ------- 0 3.1376 21.569 19 17975
- 0.519678 3 21 tcp 40 ------- 0 3.1388 21.581 0 18507
- 0.519806 3 21 tcp 1540 ------- 0 3.1376 21.569 21 18787
r 0.522691 3 21 tcp 1540 ------- 0 3.1376 21.569 20 17976
r 0.522819 3 21 tcp 40 ------- 0 3.1388 21.581 0 18507
- 0.524734 3 21 tcp 1540 ------- 0 3.1376 21.569 22 18788
r 0.527747 3 21 tcp 1540 ------- 0 3.1376 21.569 21 18787
- 0.529662 3 21 ack 40 ------- 0 5.923 21.218 0 17404
- 0.52979 3 21 ack 40 ------- 0 20.1241 21.412 0 17097
+ 0.529942 3 21 ack 40 ------- 0 20.1229 21.400 0 17735
- 0.529942 3 21 ack 40 ------- 0 20.1229 21.400 0 17735
+ 0.530302 3 21 tcp 1540 ------- 0 3.1376 21.569 23 19533
- 0.530302 3 21 tcp 1540 ------- 0 3.1376 21.569 23 19533
+ 0.530302 3 21 tcp 1540 ------- 0 3.1376 21.569 24 19534
+ 0.530686 3 21 tcp 1540 ------- 0 3.1376 21.569 25 19543
+ 0.530686 3 21 tcp 1540 ------- 0 3.1376 21.569 26 19544
r 0.532675 3 21 tcp 1540 ------- 0 3.1376 21.569 22 18788
r 0.532803 3 21 ack 40 ------- 0 5.923 21.218 0 17404
r 0.532931 3 21 ack 40 ------- 0 20.1241 21.412 0 17097
r 0.533083 3 21 ack 40 ------- 0 20.1229 21.400 0 17735
- 0.53523 3 21 tcp 1540 ------- 0 3.1376 21.569 24 19534
r 0.538243 3 21 tcp 1540 ------- 0 3.1376 21.569 23 19533
- 0.540158 3 21 tcp 1540 ------- 0 3.1376 21.569 25 19543
+ 0.541054 3 21 ack 40 ------- 0 3.645 21.149 0 19901
+ 0.542838 3 21 ack 40 ------- 0 25.610 21.1094 0 19003
+ 0.542934 3 21 ack 40 ------- 0 20.1284 21.455 0 18931
r 0.543171 3 21 tcp 1540 ------- 0 3.1376 21.569 24 19534
+ 0.543286 3 21 ack 40 ------- 0 25.616 21.1100 0 19589
+ 0.54335 3 21 ack 40 ------- 0 25.693 21.1177 1 19625
- 0.545086 3 21 tcp 1540 ------- 0 3.1376 21.569 26 19544
r 0.548099 3 21 tcp 1540 ------- 0 3.1376 21.569 25 19543
- 0.550014 3 21 ack 40 ------- 0 3.645 21.149 0 19901
- 0.550142 3 21 ack 40 ------- 0 25.610 21.1094 0 19003
- 0.55027 3 21 ack 40 ------- 0 20.1284 21.455 0 18931
- 0.550398 3 21 ack 40 ------- 0 25.616 21.1100 0 19589
- 0.550526 3 21 ack 40 ------- 0 25.693 21.1177 1 19625
r 0.553027 3 21 tcp 1540 ------- 0 3.1376 21.569 26 19544
r 0.553155 3 21 ack 40 ------- 0 3.645 21.149 0 19901
r 0.553283 3 21 ack 40 ------- 0 25.610 21.1094 0 19003
r 0.553411 3 21 ack 40 ------- 0 20.1284 21.455 0 18931
r 0.553539 3 21 ack 40 ------- 0 25.616 21.1100 0 19589
r 0.553667 3 21 ack 40 ------- 0 25.693 21.1177 1 19625
+ 0.556222 3 21 ack 40 ------- 0 3.654 21.158 1 20518
- 0.556222 3 21 ack 40 ------- 0 3.654 21.158 1 20518
r 0.559363 3 21 ack 40 ------- 0 3.654 21.158 1 20518
+ 0.56115 3 21 ack 40 ------- 0 3.654 21.158 2 20747
- 0.56115 3 21 ack 40 ------- 0 3.654 21.158 2 20747
r 0.564291 3 21 ack 40 ------- 0 3.654 21.158 2 20747
+ 0.577668 3 21 ack 40 ------- 0 25.693 21.1177 2 20223
- 0.577668 3 21 ack 40 ------- 0 25.693 21.1177 2 20223
r 0.580809 3 21 ack 40 ------- 0 25.693 21.1177 2 20223
+ 0.580862 3 21 ack 40 ------- 0 3.651 21.155 1 21661
- 0.580862 3 21 ack 40 ------- 0 3.651 21.155 1 21661
r 0.584003 3 21 ack 40 ------- 0 3.651 21.155 1 21661
+ 0.58579 3 21 ack 40 ------- 0 3.651 21.155 2 21868
- 0.58579 3 21 ack 40 ------- 0 3.651 21.155 2 21868
r 0.588931 3 21 ack 40 ------- 0 3.651 21.155 2 21868
+ 0.598708 3 21 ack 40 ------- 0 25.642 21.1126 3 20654
- 0.598708 3 21 ack 40 ------- 0 25.642 21.1126 3 20654
r 0.601849 3 21 ack 40 ------- 0 25.642 21.1126 3 20654
+ 0.606132 3 21 ack 40 ------- 0 25.642 21.1126 3 20860
- 0.606132 3 21 ack 40 ------- 0 25.642 21.1126 3 20860
+ 0.606164 3 21 ack 40 ------- 0 25.635 21.1119 0 20861
+ 0.606196 3 21 ack 40 ------- 0 25.625 21.1109 0 20862
- 0.60626 3 21 ack 40 ------- 0 25.635 21.1119 0 20861
- 0.606388 3 21 ack 40 ------- 0 25.625 21.1109 0 20862
r 0.609273 3 21 ack 40 ------- 0 25.642 21.1126 3 20860
r 0.609401 3 21 ack 40 ------- 0 25.635 21.1119 0 20861
r 0.609529 3 21 ack 40 ------- 0 25.625 21.1109 0 20862
+ 0.610686 3 21 ack 40 ------- 0 3.694 21.198 29 22803
- 0.610686 3 21 ack 40 ------- 0 3.694 21.198 29 22803
r 0.613827 3 21 ack 40 ------- 0 3.694 21.198 29 22803
+ 0.615614 3 21 ack 40 ------- 0 3.694 21.198 29 23047
- 0.615614 3 21 ack 40 ------- 0 3.694 21.198 29 23047
r 0.618755 3 21 ack 40 ------- 0 3.694 21.198 29 23047
+ 0.620542 3 21 ack 40 ------- 0 3.634 21.138 1 23239
- 0.620542 3 21 ack 40 ------- 0 3.634 21.138 1 23239
r 0.623683 3 21 ack 40 ------- 0 3.634 21.138 1 23239
+ 0.62547 3 21 ack 40 ------- 0 3.634 21.138 2 23435
- 0.62547 3 21 ack 40 ------- 0 3.634 21.138 2 23435
r 0.628611 3 21 ack 40 ------- 0 3.634 21.138 2 23435
+ 0.630782 3 21 tcp 1540 ------- 0 3.1376 21.569 27 23659
- 0.630782 3 21 tcp 1540 ------- 0 3.1376 21.569 27 23659
+ 0.630782 3 21 tcp 1540 ------- 0 3.1376 21.569 28 23660
+ 0.630782 3 21 tcp 1540 ------- 0 3.1376 21.569 29 23661
+ 0.630782 3 21 tcp 1540 ------- 0 3.1376 21.569 30 23662
+ 0.63091 3 21 tcp 1540 ------- 0 3.1376 21.569 31 23671
+ 0.63091 3 21 tcp 1540 ------- 0 3.1376 21.569 32 23672
+ 0.631294 3 21 tcp 1540 ------- 0 3.1376 21.569 33 23683
+ 0.631294 3 21 tcp 1540 ------- 0 3.1376 21.569 34 23684
+ 0.63155 3 21 tcp 1540 ------- 0 3.1376 21.569 35 23703
+ 0.63155 3 21 tcp 1540 ------- 0 3.1376 21.569 36 23704
+ 0.631806 3 21 tcp 1540 ------- 0 3.1376 21.569 37 23713
d 0.631806 3 21 tcp 1540 ------- 0 3.1376 21.569 37 23713
+ 0.631806 3 21 tcp 1540 ------- 0 3.1376 21.569 38 23714
d 0.631806 3 21 tcp 1540 ------- 0 3.1376 21.569 38 23714
+ 0.63219 3 21 tcp 1540 ------- 0 3.1376 21.569 39 23729
d 0.63219 3 21 tcp 1540 ------- 0 3.1376 21.569 39 23729
+ 0.63219 3 21 tcp 1540 ------- 0 3.1376 21.569 40 23730
d 0.63219 3 21 tcp 1540 ------- 0 3.1376 21.569 40 23730
+ 0.632318 3 21 tcp 1540 ------- 0 3.1388 21.581 1 23732
d 0.632318 3 21 tcp 1540 ------- 0 3.1388 21.581 1 23732
+ 0.632318 3 21 tcp 1540 ------- 0 3.1388 21.581 2 23733
d 0.632318 3 21 tcp 1540 ------- 0 3.1388 21.581 2 23733
+ 0.632574 3 21 tcp 1540 ------- 0 3.1376 21.569 41 23743
d 0.632574 3 21 tcp 1540 ------- 0 3.1376 21.569 41 23743
+ 0.63283 3 21 tcp 1540 ------- 0 3.1376 21.569 42 23756
d 0.63283 3 21 tcp 1540 ------- 0 3.1376 21.569 42 23756
- 0.63571 3 21 tcp 1540 ------- 0 3.1376 21.569 28 23660
r 0.638723 3 21 tcp 1540 ------- 0 3.1376 21.569 27 23659
- 0.640638 3 21 tcp 1540 ------- 0 3.1376 21.569 29 23661
+ 0.641758 3 21 tcp 40 ------- 0 3.1380 21.573 0 24118
r 0.643651 3 21 tcp 1540 ------- 0 3.1376 21.569 28 23660
- 0.645566 3 21 tcp 1540 ------- 0 3.1376 21.569 30 23662
+ 0.647524 3 21 ack 40 ------- 0 25.612 21.1096 1 22540
+ 0.647556 3 21 ack 40 ------- 0 25.652 21.1136 0 22541
+ 0.647588 3 21 ack 40 ------- 0 25.683 21.1167 0 22543
d 0.647588 3 21 ack 40 ------- 0 25.683 21.1167 0 22543
r 0.648579 3 21 tcp 1540 ------- 0 3.1376 21.569 29 23661
- 0.650494 3 21 tcp 1540 ------- 0 3.1376 21.569 31 23671
r 0.653507 3 21 tcp 1540 ------- 0 3.1376 21.569 30 23662
- 0.655422 3 21 tcp 1540 ------- 0 3.1376 21.569 32 23672
r 0.658435 3 21 tcp 1540 ------- 0 3.1376 21.569 31 23671
- 0.66035 3 21 tcp 1540 ------- 0 3.1376 21.569 33 23683
+ 0.662526 3 21 tcp 1540 ------- 0 3.1376 21.569 43 24918
+ 0.662782 3 21 tcp 1540 ------- 0 3.1376 21.569 44 24931
+ 0.66291 3 21 tcp 1540 ------- 0 3.1376 21.569 45 24935
+ 0.663038 3 21 tcp 1540 ------- 0 3.1376 21.569 46 24940
d 0.663038 3 21 tcp 1540 ------- 0 3.1376 21.569 46 24940
r 0.663363 3 21 tcp 1540 ------- 0 3.1376 21.569 32 23672
- 0.665278 3 21 tcp 1540 ------- 0 3.1376 21.569 34 23684
+ 0.667966 3 21 ack 40 ------- 0 3.645 21.149 1 25163
r 0.668291 3 21 tcp 1540 ------- 0 3.1376 21.569 33 23683
- 0.670206 3 21 tcp 1540 ------- 0 3.1376 21.569 35 23703
+ 0.672894 3 21 ack 40 ------- 0 3.645 21.149 2 25406
r 0.673219 3 21 tcp 1540 ------- 0 3.1376 21.569 34 23684
- 0.675134 3 21 tcp 1540 ------- 0 3.1376 21.569 36 23704
r 0.678147 3 21 tcp 1540 ------- 0 3.1376 21.569 35 23703
- 0.680062 3 21 tcp 40 ------- 0 3.1380 21.573 0 24118
- 0.68019 3 21 ack 40 ------- 0 25.612 21.1096 1 22540
- 0.680318 3 21 ack 40 ------- 0 25.652 21.1136 0 22541
- 0.680446 3 21 tcp 1540 ------- 0 3.1376 21.569 43 24918
r 0.683075 3 21 tcp 1540 ------- 0 3.1376 21.569 36 23704
r 0.683203 3 21 tcp 40 ------- 0 3.1380 21.573 0 24118
r 0.683331 3 21 ack 40 ------- 0 25.612 21.1096 1 22540
r 0.683459 3 21 ack 40 ------- 0 25.652 21.1136 0 22541
+ 0.685028 3 21 ack 40 ------- 0 5.925 21.220 6 23977
- 0.685374 3 21 tcp 1540 ------- 0 3.1376 21.569 44 24931
+ 0.688062 3 21 ack 40 ------- 0 3.651 21.155 3 25987
r 0.688387 3 21 tcp 1540 ------- 0 3.1376 21.569 43 24918
- 0.690302 3 21 tcp 1540 ------- 0 3.1376 21.569 45 24935
+ 0.691252 3 21 ack 40 ------- 0 25.692 21.1176 1 23976
+ 0.69138 3 21 ack 40 ------- 0 25.692 21.1176 2 24204
+ 0.69299 3 21 ack 40 ------- 0 3.651 21.155 4 26267
r 0.693315 3 21 tcp 1540 ------- 0 3.1376 21.569 44 24931
- 0.69523 3 21 ack 40 ------- 0 3.645 21.149 1 25163
- 0.695358 3 21 ack 40 ------- 0 3.645 21.149 2 25406
- 0.695486 3 21 ack 40 ------- 0 5.925 21.220 6 23977
- 0.695614 3 21 ack 40 ------- 0 3.651 21.155 3 25987
- 0.695742 3 21 ack 40 ------- 0 25.692 21.1176 1 23976
- 0.69587 3 21 ack 40 ------- 0 25.692 21.1176 2 24204
- 0.695998 3 21 ack 40 ------- 0 3.651 21.155 4 26267
+ 0.698046 3 21 ack 40 ------- 0 3.651 21.155 5 26463
- 0.698046 3 21 ack 40 ------- 0 3.651 21.155 5 26463
r 0.698243 3 21 tcp 1540 ------- 0 3.1376 21.569 45 24935
r 0.698371 3 21 ack 40 ------- 0 3.645 21.149 1 25163
r 0.698499 3 21 ack 40 ------- 0 3.645 21.149 2 25406
r 0.698627 3 21 ack 40 ------- 0 5.925 21.220 6 23977
r 0.698755 3 21 ack 40 ------- 0 3.651 21.155 3 25987
r 0.698883 3 21 ack 40 ------- 0 25.692 21.1176 1 23976
r 0.699011 3 21 ack 40 ------- 0 25.692 21.1176 2 24204
r 0.699139 3 21 ack 40 ------- 0 3.651 21.155 4 26267
r 0.701187 3 21 ack 40 ------- 0 3.651 21.155 5 26463
+ 0.71634 3 21 ack 40 ------- 0 25.636 21.1120 0 25329
- 0.71634 3 21 ack 40 ------- 0 25.636 21.1120 0 25329
+ 0.718014 3 21 ack 40 ------- 0 3.694 21.198 32 27355
- 0.718014 3 21 ack 40 ------- 0 3.694 21.198 32 27355
r 0.719481 3 21 ack 40 ------- 0 25.636 21.1120 0 25329
r 0.721155 3 21 ack 40 ------- 0 3.694 21.198 32 27355
+ 0.72307 3 21 ack 40 ------- 0 3.634 21.138 3 27598
- 0.72307 3 21 ack 40 ------- 0 3.634 21.138 3 27598
r 0.726211 3 21 ack 40 ------- 0 3.634 21.138 3 27598
+ 0.732926 3 21 ack 40 ------- 0 3.634 21.138 3 28024
- 0.732926 3 21 ack 40 ------- 0 3.634 21.138 3 28024
r 0.736067 3 21 ack 40 ------- 0 3.634 21.138 3 28024
+ 0.737854 3 21 ack 40 ------- 0 3.634 21.138 3 28195
- 0.737854 3 21 ack 40 ------- 0 3.634 21.138 3 28195
+ 0.739633 3 21 tcp 40 ------- 0 3.1375 21.568 0 28261
- 0.739633 3 21 tcp 40 ------- 0 3.1375 21.568 0 28261
r 0.740995 3 21 ack 40 ------- 0 3.634 21.138 3 28195
r 0.742774 3 21 tcp 40 ------- 0 3.1375 21.568 0 28261
+ 0.748222 3 21 tcp 1540 ------- 0 3.1376 21.569 47 28611
- 0.748222 3 21 tcp 1540 ------- 0 3.1376 21.569 47 28611
+ 0.75034 3 21 ack 40 ------- 0 20.1241 21.412 1 26636
- 0.75315 3 21 ack 40 ------- 0 20.1241 21.412 1 26636
+ 0.753534 3 21 tcp 1540 ------- 0 3.1376 21.569 48 28793
- 0.753534 3 21 tcp 1540 ------- 0 3.1376 21.569 48 28793
+ 0.75379 3 21 tcp 1540 ------- 0 3.1376 21.569 49 28801
+ 0.753918 3 21 ack 40 ------- 0 3.646 21.150 0 28812
+ 0.754046 3 21 tcp 1540 ------- 0 3.1376 21.569 50 28825
+ 0.754174 3 21 tcp 1540 ------- 0 3.1376 21.569 51 28832
+ 0.75443 3 21 tcp 1540 ------- 0 3.1376 21.569 52 28843
+ 0.754558 3 21 tcp 1540 ------- 0 3.1376 21.569 53 28852
+ 0.754686 3 21 tcp 1540 ------- 0 3.1376 21.569 54 28855
+ 0.754814 3 21 tcp 1540 ------- 0 3.1376 21.569 55 28859
+ 0.754942 3 21 tcp 1540 ------- 0 3.1376 21.569 56 28866
+ 0.75507 3 21 tcp 1540 ------- 0 3.1380 21.573 1 28878
d 0.75507 3 21 tcp 1540 ------- 0 3.1380 21.573 1 28878
+ 0.75507 3 21 tcp 1540 ------- 0 3.1380 21.573 2 28879
d 0.75507 3 21 tcp 1540 ------- 0 3.1380 21.573 2 28879
r 0.756163 3 21 tcp 1540 ------- 0 3.1376 21.569 47 28611
r 0.756291 3 21 ack 40 ------- 0 20.1241 21.412 1 26636
- 0.758462 3 21 tcp 1540 ------- 0 3.1376 21.569 49 28801
+ 0.760324 3 21 ack 40 ------- 0 20.1241 21.412 2 27062
r 0.761475 3 21 tcp 1540 ------- 0 3.1376 21.569 48 28793
+ 0.762916 3 21 ack 40 ------- 0 20.1229 21.400 1 27278
d 0.762916 3 21 ack 40 ------- 0 20.1229 21.400 1 27278
- 0.76339 3 21 ack 40 ------- 0 3.646 21.150 0 28812
- 0.763518 3 21 tcp 1540 ------- 0 3.1376 21.569 50 28825
r 0.766403 3 21 tcp 1540 ------- 0 3.1376 21.569 49 28801
r 0.766531 3 21 ack 40 ------- 0 3.646 21.150 0 28812
- 0.768446 3 21 tcp 1540 ------- 0 3.1376 21.569 51 28832
r 0.771459 3 21 tcp 1540 ------- 0 3.1376 21.569 50 28825
- 0.773374 3 21 tcp 1540 ------- 0 3.1376 21.569 52 28843
+ 0.775038 3 21 ack 40 ------- 0 3.647 21.151 0 29648
+ 0.775294 3 21 tcp 1540 ---A--- 0 3.1376 21.569 37 29659
r 0.776387 3 21 tcp 1540 ------- 0 3.1376 21.569 51 28832
- 0.778302 3 21 tcp 1540 ------- 0 3.1376 21.569 53 28852
+ 0.780222 3 21 ack 40 ------- 0 3.645 21.149 3 29875
+ 0.780516 3 21 ack 40 ------- 0 25.642 21.1126 3 28962
+ 0.780548 3 21 ack 40 ------- 0 20.1267 21.438 0 28740
r 0.781315 3 21 tcp 1540 ------- 0 3.1376 21.569 52 28843
- 0.78323 3 21 tcp 1540 ------- 0 3.1376 21.569 54 28855
+ 0.7833 3 21 ack 40 ------- 0 25.642 21.1126 3 29487
+ 0.78515 3 21 ack 40 ------- 0 3.645 21.149 4 30104
d 0.78515 3 21 ack 40 ------- 0 3.645 21.149 4 30104
r 0.786243 3 21 tcp 1540 ------- 0 3.1376 21.569 53 28852
- 0.788158 3 21 tcp 1540 ------- 0 3.1376 21.569 55 28859
+ 0.790078 3 21 ack 40 ------- 0 3.645 21.149 5 30320
r 0.791171 3 21 tcp 1540 ------- 0 3.1376 21.569 54 28855
- 0.793086 3 21 tcp 1540 ------- 0 3.1376 21.569 56 28866
+ 0.794337 3 21 ack 40 ------- 0 20.1302 21.473 0 29545
+ 0.794369 3 21 ack 40 ------- 0 20.1293 21.464 0 29548