+ 0.00017 0 19 rtProtoDV 26 ------- 0 0.1454 19.1297 -1 6
- 0.00017 0 19 rtProtoDV 26 ------- 0 0.1454 19.1297 -1 6
r 0.003275 0 19 rtProtoDV 26 ------- 0 0.1454 19.1297 -1 6
+ 0.003496 0 19 rtProtoDV 26 ------- 0 0.1454 19.1297 -1 51
- 0.003496 0 19 rtProtoDV 26 ------- 0 0.1454 19.1297 -1 51
+ 0.004328 0 19 rtProtoDV 26 ------- 0 0.1454 19.1297 -1 68
- 0.004883 0 19 rtProtoDV 26 ------- 0 0.1454 19.1297 -1 68
+ 0.00512 0 19 rtProtoDV 26 ------- 0 0.1454 19.1297 -1 89
+ 0.005689 0 19 rtProtoDV 26 ------- 0 0.1454 19.1297 -1 115
+ 0.005941 0 19 rtProtoDV 26 ------- 0 0.1454 19.1297 -1 121
- 0.006269 0 19 rtProtoDV 26 ------- 0 0.1454 19.1297 -1 89
r 0.006601 0 19 rtProtoDV 26 ------- 0 0.1454 19.1297 -1 51
+ 0.006642 0 19 tcp 40 ------- 0 2.1185 19.722 0 53
+ 0.006731 0 19 tcp 40 ------- 0 0.1293 19.604 0 143
- 0.007656 0 19 rtProtoDV 26 ------- 0 0.1454 19.1297 -1 115
r 0.007988 0 19 rtProtoDV 26 ------- 0 0.1454 19.1297 -1 68
+ 0.00816 0 19 rtProtoDV 26 ------- 0 0.1454 19.1297 -1 218
- 0.009043 0 19 rtProtoDV 26 ------- 0 0.1454 19.1297 -1 121
r 0.009375 0 19 rtProtoDV 26 ------- 0 0.1454 19.1297 -1 89
- 0.010429 0 19 tcp 40 ------- 0 2.1185 19.722 0 53
r 0.010761 0 19 rtProtoDV 26 ------- 0 0.1454 19.1297 -1 115
+ 0.010912 0 19 rtProtoDV 26 ------- 0 0.1454 19.1297 -1 358
r 0.012148 0 19 rtProtoDV 26 ------- 0 0.1454 19.1297 -1 121
- 0.012563 0 19 tcp 40 ------- 0 0.1293 19.604 0 143
+ 0.013106 0 19 tcp 40 ------- 0 0.1249 19.560 0 479
+ 0.013803 0 19 tcp 40 ------- 0 0.1296 19.607 0 508
r 0.014281 0 19 tcp 40 ------- 0 2.1185 19.722 0 53
+ 0.014544 0 19 rtProtoDV 26 ------- 0 0.1454 19.1297 -1 545
- 0.014696 0 19 rtProtoDV 26 ------- 0 0.1454 19.1297 -1 218
+ 0.014717 0 19 tcp 40 ------- 0 5.1517 19.885 0 339
+ 0.014807 0 19 rtProtoDV 26 ------- 0 0.1454 19.1297 -1 557
- 0.016083 0 19 rtProtoDV 26 ------- 0 0.1454 19.1297 -1 358
r 0.016415 0 19 tcp 40 ------- 0 0.1293 19.604 0 143
+ 0.016672 0 19 rtProtoDV 26 ------- 0 0.1454 19.1297 -1 623
+ 0.017059 0 19 rtProtoDV 26 ------- 0 0.1454 19.1297 -1 645
- 0.017469 0 19 tcp 40 ------- 0 0.1249 19.560 0 479
r 0.017801 0 19 rtProtoDV 26 ------- 0 0.1454 19.1297 -1 218
r 0.019188 0 19 rtProtoDV 26 ------- 0 0.1454 19.1297 -1 358
- 0.019603 0 19 tcp 40 ------- 0 0.1296 19.607 0 508
+ 0.020102 0 19 tcp 40 ------- 0 4.1158 19.808 0 625
+ 0.020134 0 19 tcp 40 ------- 0 5.1499 19.867 0 593
r 0.021321 0 19 tcp 40 ------- 0 0.1249 19.560 0 479
- 0.021736 0 19 rtProtoDV 26 ------- 0 0.1454 19.1297 -1 545
+ 0.022293 0 19 tcp 1540 ------- 0 0.1293 19.604 1 808
+ 0.022293 0 19 tcp 1540 ------- 0 0.1293 19.604 2 809
- 0.023123 0 19 tcp 40 ------- 0 5.1517 19.885 0 339
r 0.023455 0 19 tcp 40 ------- 0 0.1296 19.607 0 508
r 0.024841 0 19 rtProtoDV 26 ------- 0 0.1454 19.1297 -1 545
- 0.025256 0 19 rtProtoDV 26 ------- 0 0.1454 19.1297 -1 557
+ 0.02657 0 19 tcp 40 ------- 0 2.1115 19.652 0 782
- 0.026643 0 19 rtProtoDV 26 ------- 0 0.1454 19.1297 -1 623
r 0.026975 0 19 tcp 40 ------- 0 5.1517 19.885 0 339
+ 0.027834 0 19 tcp 1540 ------- 0 2.1185 19.722 1 836
- 0.028029 0 19 rtProtoDV 26 ------- 0 0.1454 19.1297 -1 645
r 0.028361 0 19 rtProtoDV 26 ------- 0 0.1454 19.1297 -1 557
+ 0.029066 0 19 tcp 1540 ------- 0 2.1185 19.722 2 837
+ 0.029098 0 19 tcp 40 ------- 0 2.1117 19.654 0 843
- 0.029416 0 19 tcp 40 ------- 0 4.1158 19.808 0 625
r 0.029748 0 19 rtProtoDV 26 ------- 0 0.1454 19.1297 -1 623
r 0.031135 0 19 rtProtoDV 26 ------- 0 0.1454 19.1297 -1 645
- 0.031549 0 19 tcp 40 ------- 0 5.1499 19.867 0 593
r 0.033268 0 19 tcp 40 ------- 0 4.1158 19.808 0 625
+ 0.033493 0 19 tcp 1540 ------- 0 0.1249 19.560 1 1073
+ 0.033493 0 19 tcp 1540 ------- 0 0.1249 19.560 2 1074
- 0.033683 0 19 tcp 1540 ------- 0 0.1293 19.604 1 808
r 0.035401 0 19 tcp 40 ------- 0 5.1499 19.867 0 593
+ 0.036714 0 19 ack 40 ------- 0 11.878 19.315 0 923
+ 0.037013 0 19 tcp 1540 ------- 0 0.1296 19.607 1 1160
+ 0.037013 0 19 tcp 1540 ------- 0 0.1296 19.607 2 1161
d 0.037013 0 19 tcp 1540 ------- 0 0.1296 19.607 2 1161
+ 0.040765 0 19 tcp 40 ------- 0 3.1275 19.752 0 1094
d 0.040765 0 19 tcp 40 ------- 0 3.1275 19.752 0 1094
+ 0.054667 0 19 ack 40 ------- 0 2.595 19.93 0 1337
d 0.054667 0 19 ack 40 ------- 0 2.595 19.93 0 1337
+ 0.055578 0 19 tcp 1540 ------- 0 5.1517 19.885 1 1344
d 0.055578 0 19 tcp 1540 ------- 0 5.1517 19.885 1 1344
+ 0.05681 0 19 tcp 1540 ------- 0 5.1517 19.885 2 1345
d 0.05681 0 19 tcp 1540 ------- 0 5.1517 19.885 2 1345
+ 0.059274 0 19 tcp 1540 ------- 0 4.1158 19.808 1 1532
d 0.059274 0 19 tcp 1540 ------- 0 4.1158 19.808 1 1532
+ 0.05953 0 19 tcp 40 ------- 0 0.1269 19.580 0 1743
d 0.05953 0 19 tcp 40 ------- 0 0.1269 19.580 0 1743
+ 0.060506 0 19 tcp 1540 ------- 0 4.1158 19.808 2 1533
d 0.060506 0 19 tcp 1540 ------- 0 4.1158 19.808 2 1533
+ 0.066243 0 19 tcp 40 ------- 0 3.1261 19.738 0 1754
d 0.066243 0 19 tcp 40 ------- 0 3.1261 19.738 0 1754
+ 0.069791 0 19 tcp 40 ------- 0 0.1258 19.569 0 2043
d 0.069791 0 19 tcp 40 ------- 0 0.1258 19.569 0 2043
+ 0.074507 0 19 tcp 40 ------- 0 3.1317 19.794 0 1977
d 0.074507 0 19 tcp 40 ------- 0 3.1317 19.794 0 1977
+ 0.082578 0 19 tcp 40 ------- 0 3.1324 19.801 0 2258
d 0.082578 0 19 tcp 40 ------- 0 3.1324 19.801 0 2258
+ 0.085946 0 19 tcp 1540 ------- 0 5.1499 19.867 1 1642
d 0.085946 0 19 tcp 1540 ------- 0 5.1499 19.867 1 1642
+ 0.090874 0 19 tcp 1540 ------- 0 5.1499 19.867 2 1643
d 0.090874 0 19 tcp 1540 ------- 0 5.1499 19.867 2 1643
+ 0.090906 0 19 ack 40 ------- 0 5.900 19.184 0 1656
d 0.090906 0 19 ack 40 ------- 0 5.900 19.184 0 1656
+ 0.101675 0 19 ack 40 ------- 0 11.836 19.273 0 1612
d 0.101675 0 19 ack 40 ------- 0 11.836 19.273 0 1612
+ 0.10241 0 19 ack 40 ------- 0 15.1133 19.379 0 2027
d 0.10241 0 19 ack 40 ------- 0 15.1133 19.379 0 2027
+ 0.103802 0 19 ack 40 ------- 0 15.1183 19.429 0 2209
d 0.103802 0 19 ack 40 ------- 0 15.1183 19.429 0 2209
+ 0.11068 0 19 tcp 40 ------- 0 0.1250 19.561 0 3400
d 0.11068 0 19 tcp 40 ------- 0 0.1250 19.561 0 3400
- 0.115816 0 19 tcp 1540 ------- 0 0.1293 19.604 2 809
r 0.117535 0 19 tcp 1540 ------- 0 0.1293 19.604 1 808
+ 0.118597 0 19 tcp 40 ------- 0 3.1271 19.748 0 3422
+ 0.121387 0 19 tcp 1540 ------- 0 0.1293 19.604 3 3717
d 0.121387 0 19 tcp 1540 ------- 0 0.1293 19.604 3 3717
+ 0.121387 0 19 tcp 1540 ------- 0 0.1293 19.604 4 3718
d 0.121387 0 19 tcp 1540 ------- 0 0.1293 19.604 4 3718
+ 0.121867 0 19 ack 40 ------- 0 2.568 19.66 0 2558
d 0.121867 0 19 ack 40 ------- 0 2.568 19.66 0 2558
+ 0.125194 0 19 ack 40 ------- 0 25.551 19.1290 0 2802
d 0.125194 0 19 ack 40 ------- 0 25.551 19.1290 0 2802
+ 0.125386 0 19 ack 40 ------- 0 12.799 19.354 0 2797
d 0.125386 0 19 ack 40 ------- 0 12.799 19.354 0 2797
+ 0.125595 0 19 tcp 40 ------- 0 2.1181 19.718 0 2624
d 0.125595 0 19 tcp 40 ------- 0 2.1181 19.718 0 2624
+ 0.126197 0 19 tcp 40 ------- 0 1.1821 19.647 0 2490
d 0.126197 0 19 tcp 40 ------- 0 1.1821 19.647 0 2490
+ 0.131802 0 19 tcp 40 ------- 0 4.1175 19.825 0 3316
d 0.131802 0 19 tcp 40 ------- 0 4.1175 19.825 0 3316
+ 0.131866 0 19 ack 40 ------- 0 15.1174 19.420 0 3009
d 0.131866 0 19 ack 40 ------- 0 15.1174 19.420 0 3009
+ 0.136117 0 19 tcp 40 ------- 0 1.1809 19.635 0 2707
d 0.136117 0 19 tcp 40 ------- 0 1.1809 19.635 0 2707
+ 0.136244 0 19 tcp 40 ------- 0 3.1299 19.776 0 4011
d 0.136244 0 19 tcp 40 ------- 0 3.1299 19.776 0 4011
+ 0.13809 0 19 tcp 40 ------- 0 4.1154 19.804 0 3518
d 0.13809 0 19 tcp 40 ------- 0 4.1154 19.804 0 3518
+ 0.138154 0 19 tcp 40 ------- 0 4.1181 19.831 0 3676
d 0.138154 0 19 tcp 40 ------- 0 4.1181 19.831 0 3676
+ 0.14213 0 19 ack 40 ------- 0 0.450 19.18 0 4386
d 0.14213 0 19 ack 40 ------- 0 0.450 19.18 0 4386
+ 0.14321 0 19 ack 40 ------- 0 15.1127 19.373 0 3157
d 0.14321 0 19 ack 40 ------- 0 15.1127 19.373 0 3157
+ 0.144235 0 19 ack 40 ------- 0 2.601 19.99 0 3120
d 0.144235 0 19 ack 40 ------- 0 2.601 19.99 0 3120
+ 0.151947 0 19 tcp 40 ------- 0 10.938 19.959 0 2788
d 0.151947 0 19 tcp 40 ------- 0 10.938 19.959 0 2788
+ 0.15546 0 19 tcp 40 ------- 0 3.1280 19.757 0 4640
d 0.15546 0 19 tcp 40 ------- 0 3.1280 19.757 0 4640
+ 0.162972 0 19 tcp 40 ------- 0 3.1318 19.795 0 4895
d 0.162972 0 19 tcp 40 ------- 0 3.1318 19.795 0 4895
+ 0.163402 0 19 tcp 40 ------- 0 5.1513 19.881 0 4171
d 0.163402 0 19 tcp 40 ------- 0 5.1513 19.881 0 4171
+ 0.175946 0 19 tcp 40 ------- 0 14.1488 19.1037 0 3171
d 0.175946 0 19 tcp 40 ------- 0 14.1488 19.1037 0 3171
+ 0.177503 0 19 tcp 40 ------- 0 3.1257 19.734 0 5284
d 0.177503 0 19 tcp 40 ------- 0 3.1257 19.734 0 5284
+ 0.182776 0 19 tcp 40 ------- 0 0.1253 19.564 0 5897
d 0.182776 0 19 tcp 40 ------- 0 0.1253 19.564 0 5897
+ 0.191284 0 19 tcp 40 ------- 0 0.1247 19.558 0 6191
d 0.191284 0 19 tcp 40 ------- 0 0.1247 19.558 0 6191
- 0.197949 0 19 tcp 40 ------- 0 2.1115 19.652 0 782
r 0.199668 0 19 tcp 1540 ------- 0 0.1293 19.604 2 809
- 0.200083 0 19 tcp 1540 ------- 0 2.1185 19.722 1 836
+ 0.200539 0 19 ack 40 ------- 0 11.883 19.320 0 2654
r 0.201801 0 19 tcp 40 ------- 0 2.1115 19.652 0 782
+ 0.20544 0 19 tcp 1540 ------- 0 0.1293 19.604 5 6714
+ 0.20544 0 19 tcp 1540 ------- 0 0.1293 19.604 6 6715
d 0.20544 0 19 tcp 1540 ------- 0 0.1293 19.604 6 6715
+ 0.208059 0 19 tcp 40 ------- 0 2.1155 19.692 0 5224
d 0.208059 0 19 tcp 40 ------- 0 2.1155 19.692 0 5224
+ 0.212205 0 19 tcp 40 ------- 0 3.1269 19.746 0 6729
d 0.212205 0 19 tcp 40 ------- 0 3.1269 19.746 0 6729
+ 0.212506 0 19 ack 40 ------- 0 4.687 19.167 0 5733
d 0.212506 0 19 ack 40 ------- 0 4.687 19.167 0 5733
+ 0.214347 0 19 tcp 40 ------- 0 2.1182 19.719 0 5854
d 0.214347 0 19 tcp 40 ------- 0 2.1182 19.719 0 5854
+ 0.216843 0 19 tcp 40 ------- 0 2.1189 19.726 0 5888
d 0.216843 0 19 tcp 40 ------- 0 2.1189 19.726 0 5888
+ 0.223035 0 19 ack 40 ------- 0 2.575 19.73 0 5938
d 0.223035 0 19 ack 40 ------- 0 2.575 19.73 0 5938
+ 0.223061 0 19 tcp 40 ------- 0 24.355 19.1184 0 4293
d 0.223061 0 19 tcp 40 ------- 0 24.355 19.1184 0 4293
+ 0.224423 0 19 tcp 40 ------- 0 0.1286 19.597 0 7373
d 0.224423 0 19 tcp 40 ------- 0 0.1286 19.597 0 7373
+ 0.228053 0 19 tcp 40 ------- 0 24.352 19.1181 0 4533
d 0.228053 0 19 tcp 40 ------- 0 24.352 19.1181 0 4533
+ 0.228155 0 19 ack 40 ------- 0 10.654 19.209 0 4720
d 0.228155 0 19 ack 40 ------- 0 10.654 19.209 0 4720
+ 0.230549 0 19 tcp 40 ------- 0 1.1792 19.618 0 5901
d 0.230549 0 19 tcp 40 ------- 0 1.1792 19.618 0 5901
+ 0.231566 0 19 tcp 40 ------- 0 0.1266 19.577 0 7637
d 0.231566 0 19 tcp 40 ------- 0 0.1266 19.577 0 7637
+ 0.233493 0 19 tcp 1540 ---A--- 0 0.1249 19.560 1 7720
d 0.233493 0 19 tcp 1540 ---A--- 0 0.1249 19.560 1 7720
+ 0.237013 0 19 tcp 1540 ---A--- 0 0.1296 19.607 1 7832
d 0.237013 0 19 tcp 1540 ---A--- 0 0.1296 19.607 1 7832
+ 0.245787 0 19 ack 40 ------- 0 10.669 19.224 0 5614
d 0.245787 0 19 ack 40 ------- 0 10.669 19.224 0 5614
+ 0.247051 0 19 tcp 1540 ------- 0 2.1115 19.652 1 6900
d 0.247051 0 19 tcp 1540 ------- 0 2.1115 19.652 1 6900
+ 0.248283 0 19 tcp 1540 ------- 0 2.1115 19.652 2 6901
d 0.248283 0 19 tcp 1540 ------- 0 2.1115 19.652 2 6901
+ 0.258063 0 19 ack 40 ------- 0 15.1149 19.395 0 7215
d 0.258063 0 19 ack 40 ------- 0 15.1149 19.395 0 7215
+ 0.260616 0 19 tcp 40 ------- 0 3.1297 19.774 0 8434
d 0.260616 0 19 tcp 40 ------- 0 3.1297 19.774 0 8434
+ 0.261413 0 19 tcp 40 ------- 0 0.1257 19.568 0 8693
d 0.261413 0 19 tcp 40 ------- 0 0.1257 19.568 0 8693
+ 0.268373 0 19 tcp 40 ------- 0 1.1801 19.627 0 7942
d 0.268373 0 19 tcp 40 ------- 0 1.1801 19.627 0 7942
+ 0.269503 0 19 tcp 1540 ---A--- 0 4.1158 19.808 1 8358
d 0.269503 0 19 tcp 1540 ---A--- 0 4.1158 19.808 1 8358
+ 0.269637 0 19 tcp 40 ------- 0 1.1819 19.645 0 8022
d 0.269637 0 19 tcp 40 ------- 0 1.1819 19.645 0 8022
+ 0.273905 0 19 tcp 40 ------- 0 3.1264 19.741 0 8875
d 0.273905 0 19 tcp 40 ------- 0 3.1264 19.741 0 8875
+ 0.273937 0 19 tcp 40 ------- 0 3.1306 19.783 0 8882
d 0.273937 0 19 tcp 40 ------- 0 3.1306 19.783 0 8882
+ 0.274669 0 19 tcp 40 ------- 0 0.1279 19.590 0 9261
d 0.274669 0 19 tcp 40 ------- 0 0.1279 19.590 0 9261
+ 0.279455 0 19 tcp 1540 ---A--- 0 5.1517 19.885 1 8100
d 0.279455 0 19 tcp 1540 ---A--- 0 5.1517 19.885 1 8100
+ 0.279691 0 19 ack 40 ------- 0 10.655 19.210 0 7382
d 0.279691 0 19 ack 40 ------- 0 10.655 19.210 0 7382
+ 0.280719 0 19 tcp 1540 ---A--- 0 5.1499 19.867 1 8496
d 0.280719 0 19 tcp 1540 ---A--- 0 5.1499 19.867 1 8496
- 0.282216 0 19 tcp 1540 ------- 0 2.1185 19.722 2 837
r 0.283935 0 19 tcp 1540 ------- 0 2.1185 19.722 1 836
+ 0.284543 0 19 ack 40 ------- 0 15.1162 19.408 0 7655
+ 0.29305 0 19 ack 40 ------- 0 24.951 19.1225 0 8186
d 0.29305 0 19 ack 40 ------- 0 24.951 19.1225 0 8186
+ 0.299583 0 19 tcp 40 ------- 0 5.1502 19.870 0 9240
d 0.299583 0 19 tcp 40 ------- 0 5.1502 19.870 0 9240
+ 0.305087 0 19 ack 40 ------- 0 15.1122 19.368 0 8503
d 0.305087 0 19 ack 40 ------- 0 15.1122 19.368 0 8503
+ 0.305151 0 19 tcp 40 ------- 0 4.1212 19.862 0 10050
d 0.305151 0 19 tcp 40 ------- 0 4.1212 19.862 0 10050
+ 0.308571 0 19 tcp 40 ------- 0 2.1175 19.712 0 9344
d 0.308571 0 19 tcp 40 ------- 0 2.1175 19.712 0 9344
+ 0.313489 0 19 tcp 40 ------- 0 3.1276 19.753 0 10297
d 0.313489 0 19 tcp 40 ------- 0 3.1276 19.753 0 10297
+ 0.314859 0 19 ack 40 ------- 0 2.578 19.76 0 9760
d 0.314859 0 19 ack 40 ------- 0 2.578 19.76 0 9760
+ 0.318942 0 19 tcp 40 ------- 0 12.1111 19.984 0 9459
d 0.318942 0 19 tcp 40 ------- 0 12.1111 19.984 0 9459
+ 0.31907 0 19 ack 40 ------- 0 20.1218 19.1209 0 10111
d 0.31907 0 19 ack 40 ------- 0 20.1218 19.1209 0 10111
+ 0.31923 0 19 ack 40 ------- 0 12.788 19.343 0 9983
d 0.31923 0 19 ack 40 ------- 0 12.788 19.343 0 9983
+ 0.319873 0 19 ack 40 ------- 0 3.608 19.124 0 10484
d 0.319873 0 19 ack 40 ------- 0 3.608 19.124 0 10484
+ 0.326161 0 19 tcp 40 ------- 0 3.1272 19.749 0 10677
d 0.326161 0 19 tcp 40 ------- 0 3.1272 19.749 0 10677
+ 0.327179 0 19 tcp 1540 ------- 0 2.1185 19.722 2 9941
d 0.327179 0 19 tcp 1540 ------- 0 2.1185 19.722 2 9941
+ 0.328411 0 19 tcp 1540 ------- 0 2.1185 19.722 3 9942
d 0.328411 0 19 tcp 1540 ------- 0 2.1185 19.722 3 9942
+ 0.331035 0 19 tcp 40 ------- 0 2.1156 19.693 0 10139
d 0.331035 0 19 tcp 40 ------- 0 2.1156 19.693 0 10139
+ 0.336315 0 19 tcp 40 ------- 0 9.1209 19.896 0 8635
d 0.336315 0 19 tcp 40 ------- 0 9.1209 19.896 0 8635
+ 0.336912 0 19 tcp 40 ------- 0 3.1283 19.760 0 11543
d 0.336912 0 19 tcp 40 ------- 0 3.1283 19.760 0 11543
+ 0.338907 0 19 tcp 40 ------- 0 9.1217 19.904 0 9141
d 0.338907 0 19 tcp 40 ------- 0 9.1217 19.904 0 9141
+ 0.358459 0 19 tcp 40 ------- 0 0.1272 19.583 0 12650
d 0.358459 0 19 tcp 40 ------- 0 0.1272 19.583 0 12650
+ 0.360811 0 19 ack 40 ------- 0 2.592 19.90 0 11985
d 0.360811 0 19 ack 40 ------- 0 2.592 19.90 0 11985
+ 0.361674 0 19 tcp 40 ------- 0 16.1031 19.1098 0 8413
d 0.361674 0 19 tcp 40 ------- 0 16.1031 19.1098 0 8413
- 0.364349 0 19 tcp 40 ------- 0 2.1117 19.654 0 843
+ 0.364556 0 19 ack 40 ------- 0 4.674 19.154 0 12504
r 0.366068 0 19 tcp 1540 ------- 0 2.1185 19.722 2 837
- 0.366483 0 19 tcp 1540 ------- 0 0.1249 19.560 1 1073
+ 0.367116 0 19 ack 40 ------- 0 25.536 19.1275 0 12225
+ 0.367148 0 19 tcp 40 ------- 0 12.1137 19.1010 0 11346
d 0.367148 0 19 tcp 40 ------- 0 12.1137 19.1010 0 11346
r 0.368201 0 19 tcp 40 ------- 0 2.1117 19.654 0 843
+ 0.385916 0 19 tcp 40 ------- 0 5.1506 19.874 0 12722
d 0.385916 0 19 tcp 40 ------- 0 5.1506 19.874 0 12722
+ 0.387212 0 19 ack 40 ------- 0 25.512 19.1251 0 12861
d 0.387212 0 19 ack 40 ------- 0 25.512 19.1251 0 12861
+ 0.392617 0 19 tcp 40 ------- 0 3.1310 19.787 0 13743
d 0.392617 0 19 tcp 40 ------- 0 3.1310 19.787 0 13743
+ 0.399786 0 19 tcp 40 ------- 0 24.366 19.1195 0 11219
d 0.399786 0 19 tcp 40 ------- 0 24.366 19.1195 0 11219
+ 0.403115 0 19 tcp 1540 ------- 0 2.1117 19.654 1 13462
d 0.403115 0 19 tcp 1540 ------- 0 2.1117 19.654 1 13462
+ 0.404347 0 19 tcp 1540 ------- 0 2.1117 19.654 2 13463
d 0.404347 0 19 tcp 1540 ------- 0 2.1117 19.654 2 13463
+ 0.405147 0 19 tcp 40 ------- 0 2.1157 19.694 0 13911
d 0.405147 0 19 tcp 40 ------- 0 2.1157 19.694 0 13911
+ 0.40544 0 19 tcp 1540 ---A--- 0 0.1293 19.604 3 14570
d 0.40544 0 19 tcp 1540 ---A--- 0 0.1293 19.604 3 14570
+ 0.405619 0 19 tcp 40 ------- 0 3.1294 19.771 0 14185
d 0.405619 0 19 tcp 40 ------- 0 3.1294 19.771 0 14185
+ 0.415922 0 19 ack 40 ------- 0 3.604 19.120 0 14700
d 0.415922 0 19 ack 40 ------- 0 3.604 19.120 0 14700
+ 0.418556 0 19 tcp 40 ------- 0 20.634 19.1136 0 13274
d 0.418556 0 19 tcp 40 ------- 0 20.634 19.1136 0 13274
+ 0.418652 0 19 ack 40 ------- 0 15.1123 19.369 0 11783
d 0.418652 0 19 ack 40 ------- 0 15.1123 19.369 0 11783
+ 0.420012 0 19 ack 40 ------- 0 15.1142 19.388 0 11878
d 0.420012 0 19 ack 40 ------- 0 15.1142 19.388 0 11878
+ 0.420347 0 19 tcp 40 ------- 0 9.1237 19.924 0 13115
d 0.420347 0 19 tcp 40 ------- 0 9.1237 19.924 0 13115
+ 0.42166 0 19 tcp 40 ------- 0 12.1135 19.1008 0 12302
d 0.42166 0 19 tcp 40 ------- 0 12.1135 19.1008 0 12302
+ 0.424508 0 19 ack 40 ------- 0 4.669 19.149 0 14672
d 0.424508 0 19 ack 40 ------- 0 4.669 19.149 0 14672
+ 0.429099 0 19 tcp 40 ------- 0 11.1358 19.972 0 10041
d 0.429099 0 19 tcp 40 ------- 0 11.1358 19.972 0 10041
+ 0.429163 0 19 ack 40 ------- 0 11.835 19.272 0 10486
d 0.429163 0 19 ack 40 ------- 0 11.835 19.272 0 10486
+ 0.431996 0 19 ack 40 ------- 0 15.1157 19.403 0 13499
d 0.431996 0 19 ack 40 ------- 0 15.1157 19.403 0 13499
- 0.448616 0 19 tcp 1540 ------- 0 0.1249 19.560 2 1074
r 0.450335 0 19 tcp 1540 ------- 0 0.1249 19.560 1 1073
+ 0.454187 0 19 tcp 1540 ------- 0 0.1249 19.560 2 16474
+ 0.454187 0 19 tcp 1540 ------- 0 0.1249 19.560 3 16475
d 0.454187 0 19 tcp 1540 ------- 0 0.1249 19.560 3 16475
+ 0.455291 0 19 tcp 40 ------- 0 9.1231 19.918 0 13155
d 0.455291 0 19 tcp 40 ------- 0 9.1231 19.918 0 13155
+ 0.459866 0 19 tcp 40 ------- 0 1.1791 19.617 0 16048
d 0.459866 0 19 tcp 40 ------- 0 1.1791 19.617 0 16048
+ 0.461579 0 19 tcp 40 ------- 0 10.950 19.971 0 14213
d 0.461579 0 19 tcp 40 ------- 0 10.950 19.971 0 14213
+ 0.469914 0 19 tcp 40 ------- 0 1.1813 19.639 0 16206
d 0.469914 0 19 tcp 40 ------- 0 1.1813 19.639 0 16206
+ 0.471723 0 19 ack 40 ------- 0 10.665 19.220 0 14688
d 0.471723 0 19 ack 40 ------- 0 10.665 19.220 0 14688
+ 0.478062 0 19 tcp 40 ------- 0 0.1261 19.572 0 17483
d 0.478062 0 19 tcp 40 ------- 0 0.1261 19.572 0 17483
+ 0.483035 0 19 tcp 40 ------- 0 2.1184 19.721 0 16120
d 0.483035 0 19 tcp 40 ------- 0 2.1184 19.721 0 16120
+ 0.493708 0 19 tcp 40 ------- 0 14.1514 19.1063 0 15487
d 0.493708 0 19 tcp 40 ------- 0 14.1514 19.1063 0 15487
+ 0.498828 0 19 tcp 40 ------- 0 4.1171 19.821 0 17159
d 0.498828 0 19 tcp 40 ------- 0 4.1171 19.821 0 17159
+ 0.498924 0 19 tcp 40 ------- 0 4.1190 19.840 0 17472
d 0.498924 0 19 tcp 40 ------- 0 4.1190 19.840 0 17472
+ 0.498956 0 19 tcp 40 ------- 0 4.1153 19.803 0 17744
d 0.498956 0 19 tcp 40 ------- 0 4.1153 19.803 0 17744
+ 0.501341 0 19 tcp 40 ------- 0 3.1296 19.773 0 18171
d 0.501341 0 19 tcp 40 ------- 0 3.1296 19.773 0 18171
+ 0.506948 0 19 tcp 40 ------- 0 20.653 19.1155 0 17334
d 0.506948 0 19 tcp 40 ------- 0 20.653 19.1155 0 17334
+ 0.521236 0 19 tcp 40 ------- 0 12.1139 19.1012 0 17460
d 0.521236 0 19 tcp 40 ------- 0 12.1139 19.1012 0 17460
+ 0.521739 0 19 tcp 40 ------- 0 9.1254 19.941 0 14886
d 0.521739 0 19 tcp 40 ------- 0 9.1254 19.941 0 14886
+ 0.529044 0 19 tcp 40 ------- 0 12.1128 19.1001 0 18457
d 0.529044 0 19 tcp 40 ------- 0 12.1128 19.1001 0 18457
- 0.530749 0 19 ack 40 ------- 0 11.878 19.315 0 923
r 0.532468 0 19 tcp 1540 ------- 0 0.1249 19.560 2 1074
- 0.532883 0 19 tcp 1540 ------- 0 0.1296 19.607 1 1160
r 0.534601 0 19 ack 40 ------- 0 11.878 19.315 0 923
+ 0.53632 0 19 tcp 1540 ------- 0 0.1249 19.560 4 19743
+ 0.540122 0 19 tcp 40 ------- 0 1.1816 19.642 0 18435
+ 0.548507 0 19 tcp 40 ------- 0 10.936 19.957 0 18168
d 0.548507 0 19 tcp 40 ------- 0 10.936 19.957 0 18168
+ 0.551938 0 19 tcp 40 ------- 0 3.1312 19.789 0 19850
d 0.551938 0 19 tcp 40 ------- 0 3.1312 19.789 0 19850
+ 0.553499 0 19 tcp 40 ------- 0 2.1146 19.683 0 19250
d 0.553499 0 19 tcp 40 ------- 0 2.1146 19.683 0 19250
+ 0.565691 0 19 tcp 40 ------- 0 4.1156 19.806 0 20522
d 0.565691 0 19 tcp 40 ------- 0 4.1156 19.806 0 20522
+ 0.567467 0 19 ack 40 ------- 0 11.881 19.318 0 14767
d 0.567467 0 19 ack 40 ------- 0 11.881 19.318 0 14767
+ 0.568187 0 19 tcp 40 ------- 0 4.1211 19.861 0 20665
d 0.568187 0 19 tcp 40 ------- 0 4.1211 19.861 0 20665
+ 0.574217 0 19 tcp 40 ------- 0 3.1290 19.767 0 20872
d 0.574217 0 19 tcp 40 ------- 0 3.1290 19.767 0 20872
+ 0.575115 0 19 tcp 40 ------- 0 14.1509 19.1058 0 20279
d 0.575115 0 19 tcp 40 ------- 0 14.1509 19.1058 0 20279
+ 0.577483 0 19 tcp 40 ------- 0 2.1163 19.700 0 20029
d 0.577483 0 19 tcp 40 ------- 0 2.1163 19.700 0 20029
+ 0.601993 0 19 tcp 40 ------- 0 3.1322 19.799 0 21972
d 0.601993 0 19 tcp 40 ------- 0 3.1322 19.799 0 21972
+ 0.606619 0 19 tcp 40 ------- 0 12.1126 19.999 0 21280
d 0.606619 0 19 tcp 40 ------- 0 12.1126 19.999 0 21280
+ 0.607563 0 19 ack 40 ------- 0 11.843 19.280 0 19207
d 0.607563 0 19 ack 40 ------- 0 11.843 19.280 0 19207
- 0.615016 0 19 tcp 40 ------- 0 3.1271 19.748 0 3422
r 0.616735 0 19 tcp 1540 ------- 0 0.1296 19.607 1 1160
- 0.617149 0 19 ack 40 ------- 0 11.883 19.320 0 2654
r 0.618868 0 19 tcp 40 ------- 0 3.1271 19.748 0 3422
- 0.619283 0 19 tcp 1540 ------- 0 0.1293 19.604 5 6714
r 0.621001 0 19 ack 40 ------- 0 11.883 19.320 0 2654
+ 0.637013 0 19 tcp 1540 ---A--- 0 0.1296 19.607 1 23913
+ 0.637594 0 19 tcp 40 ------- 0 24.365 19.1194 0 18571
+ 0.646793 0 19 tcp 40 ------- 0 12.1115 19.988 0 23114
+ 0.657033 0 19 tcp 1540 ---A--- 0 4.1158 19.808 1 24513
d 0.657033 0 19 tcp 1540 ---A--- 0 4.1158 19.808 1 24513
+ 0.66163 0 19 tcp 1540 ---A--- 0 5.1517 19.885 1 24236
d 0.66163 0 19 tcp 1540 ---A--- 0 5.1517 19.885 1 24236
+ 0.673102 0 19 tcp 40 ------- 0 20.663 19.1165 0 24342
d 0.673102 0 19 tcp 40 ------- 0 20.663 19.1165 0 24342
+ 0.675534 0 19 tcp 1540 ---A--- 0 5.1499 19.867 1 24703
d 0.675534 0 19 tcp 1540 ---A--- 0 5.1499 19.867 1 24703
+ 0.686651 0 19 tcp 40 ------- 0 9.1244 19.931 0 24113
d 0.686651 0 19 tcp 40 ------- 0 9.1244 19.931 0 24113
+ 0.691182 0 19 tcp 40 ------- 0 20.649 19.1151 0 25333
d 0.691182 0 19 tcp 40 ------- 0 20.649 19.1151 0 25333
+ 0.691739 0 19 tcp 40 ------- 0 2.1177 19.714 0 24900
d 0.691739 0 19 tcp 40 ------- 0 2.1177 19.714 0 24900
+ 0.696699 0 19 tcp 40 ------- 0 9.1259 19.946 0 24462
d 0.696699 0 19 tcp 40 ------- 0 9.1259 19.946 0 24462
+ 0.699882 0 19 tcp 40 ------- 0 24.347 19.1176 0 22345
d 0.699882 0 19 tcp 40 ------- 0 24.347 19.1176 0 22345
+ 0.700104 0 19 tcp 40 ------- 0 0.1267 19.578 0 26560
d 0.700104 0 19 tcp 40 ------- 0 0.1267 19.578 0 26560
+ 0.700747 0 19 tcp 40 ------- 0 10.944 19.965 0 25297
d 0.700747 0 19 tcp 40 ------- 0 10.944 19.965 0 25297
- 0.701416 0 19 ack 40 ------- 0 15.1162 19.408 0 7655
r 0.703135 0 19 tcp 1540 ------- 0 0.1293 19.604 5 6714
- 0.703549 0 19 ack 40 ------- 0 4.674 19.154 0 12504
+ 0.704853 0 19 ack 40 ------- 0 0.439 19.7 0 26741
r 0.705268 0 19 ack 40 ------- 0 15.1162 19.408 0 7655
- 0.705683 0 19 ack 40 ------- 0 25.536 19.1275 0 12225
r 0.707401 0 19 ack 40 ------- 0 4.674 19.154 0 12504
- 0.707816 0 19 tcp 1540 ------- 0 0.1249 19.560 2 16474
r 0.709535 0 19 ack 40 ------- 0 25.536 19.1275 0 12225
+ 0.718379 0 19 tcp 1540 ---A--- 0 2.1185 19.722 2 26249
+ 0.71933 0 19 tcp 40 ------- 0 3.1311 19.788 0 25766
+ 0.72192 0 19 tcp 1540 ------- 0 0.1296 19.607 2 27525
+ 0.72192 0 19 tcp 1540 ------- 0 0.1296 19.607 3 27526
d 0.72192 0 19 tcp 1540 ------- 0 0.1296 19.607 3 27526
+ 0.748404 0 19 tcp 40 ------- 0 20.631 19.1133 0 26714
d 0.748404 0 19 tcp 40 ------- 0 20.631 19.1133 0 26714
+ 0.750931 0 19 tcp 40 ------- 0 0.1291 19.602 0 28700
d 0.750931 0 19 tcp 40 ------- 0 0.1291 19.602 0 28700
+ 0.753684 0 19 tcp 40 ------- 0 12.1127 19.1000 0 27113
d 0.753684 0 19 tcp 40 ------- 0 12.1127 19.1000 0 27113
+ 0.75498 0 19 ack 40 ------- 0 15.1140 19.386 0 27244
d 0.75498 0 19 ack 40 ------- 0 15.1140 19.386 0 27244
+ 0.763282 0 19 ack 40 ------- 0 3.618 19.134 0 27647
d 0.763282 0 19 ack 40 ------- 0 3.618 19.134 0 27647
+ 0.763545 0 19 ack 40 ------- 0 15.1134 19.380 0 27448
d 0.763545 0 19 ack 40 ------- 0 15.1134 19.380 0 27448
+ 0.763577 0 19 ack 40 ------- 0 15.1147 19.393 0 27744
d 0.763577 0 19 ack 40 ------- 0 15.1147 19.393 0 27744
+ 0.770762 0 19 tcp 40 ------- 0 1.1817 19.643 0 28709
d 0.770762 0 19 tcp 40 ------- 0 1.1817 19.643 0 28709
+ 0.772388 0 19 tcp 40 ------- 0 5.1520 19.888 0 28060
d 0.772388 0 19 tcp 40 ------- 0 5.1520 19.888 0 28060
+ 0.773234 0 19 tcp 1540 ------- 0 3.1271 19.748 1 28040
d 0.773234 0 19 tcp 1540 ------- 0 3.1271 19.748 1 28040
+ 0.774466 0 19 tcp 1540 ------- 0 3.1271 19.748 2 28041
d 0.774466 0 19 tcp 1540 ------- 0 3.1271 19.748 2 28041
+ 0.783833 0 19 tcp 40 ------- 0 4.1192 19.842 0 29772
d 0.783833 0 19 tcp 40 ------- 0 4.1192 19.842 0 29772
- 0.789949 0 19 tcp 1540 ------- 0 0.1249 19.560 4 19743
r 0.791668 0 19 tcp 1540 ------- 0 0.1249 19.560 2 16474
+ 0.797666 0 19 tcp 40 ------- 0 0.1280 19.591 0 30636
+ 0.798891 0 19 tcp 40 ------- 0 9.1214 19.901 0 27189
d 0.798891 0 19 tcp 40 ------- 0 9.1214 19.901 0 27189
+ 0.800388 0 19 tcp 40 ------- 0 4.1191 19.841 0 30642
d 0.800388 0 19 tcp 40 ------- 0 4.1191 19.841 0 30642
+ 0.804107 0 19 tcp 40 ------- 0 5.1509 19.877 0 29507
d 0.804107 0 19 tcp 40 ------- 0 5.1509 19.877 0 29507
+ 0.804139 0 19 tcp 40 ------- 0 20.654 19.1156 0 29172
d 0.804139 0 19 tcp 40 ------- 0 20.654 19.1156 0 29172
+ 0.804203 0 19 tcp 1540 ---A--- 0 2.1115 19.652 1 29905
d 0.804203 0 19 tcp 1540 ---A--- 0 2.1115 19.652 1 29905
+ 0.80544 0 19 tcp 1540 ---A--- 0 0.1293 19.604 3 31008
d 0.80544 0 19 tcp 1540 ---A--- 0 0.1293 19.604 3 31008
+ 0.805994 0 19 tcp 40 ------- 0 6.1344 19.891 0 27927
d 0.805994 0 19 tcp 40 ------- 0 6.1344 19.891 0 27927
+ 0.81965 0 19 tcp 40 ------- 0 3.1266 19.743 0 29954
d 0.81965 0 19 tcp 40 ------- 0 3.1266 19.743 0 29954
+ 0.822939 0 19 ack 40 ------- 0 25.538 19.1277 0 29820
d 0.822939 0 19 ack 40 ------- 0 25.538 19.1277 0 29820
+ 0.823291 0 19 ack 40 ------- 0 11.878 19.315 1 24659
d 0.823291 0 19 ack 40 ------- 0 11.878 19.315 1 24659
+ 0.823474 0 19 tcp 40 ------- 0 3.1295 19.772 0 30285
d 0.823474 0 19 tcp 40 ------- 0 3.1295 19.772 0 30285
+ 0.837259 0 19 tcp 40 ------- 0 11.1368 19.982 0 27667
d 0.837259 0 19 tcp 40 ------- 0 11.1368 19.982 0 27667
+ 0.837323 0 19 ack 40 ------- 0 9.917 19.205 0 30560
d 0.837323 0 19 ack 40 ------- 0 9.917 19.205 0 30560
+ 0.848283 0 19 tcp 40 ------- 0 12.1116 19.989 0 30172
d 0.848283 0 19 tcp 40 ------- 0 12.1116 19.989 0 30172
+ 0.860043 0 19 tcp 40 ------- 0 2.1183 19.720 0 32460
d 0.860043 0 19 tcp 40 ------- 0 2.1183 19.720 0 32460
+ 0.870242 0 19 tcp 40 ------- 0 3.1321 19.798 0 32424
d 0.870242 0 19 tcp 40 ------- 0 3.1321 19.798 0 32424
- 0.872083 0 19 tcp 40 ------- 0 1.1816 19.642 0 18435
r 0.873801 0 19 tcp 1540 ------- 0 0.1249 19.560 4 19743
- 0.874216 0 19 tcp 1540 ---A--- 0 0.1296 19.607 1 23913
+ 0.874603 0 19 tcp 40 ------- 0 5.1515 19.883 0 31352
r 0.875935 0 19 tcp 40 ------- 0 1.1816 19.642 0 18435
+ 0.890933 0 19 tcp 40 ------- 0 0.1244 19.555 0 34786
+ 0.892651 0 19 tcp 40 ------- 0 20.633 19.1135 0 32275
d 0.892651 0 19 tcp 40 ------- 0 20.633 19.1135 0 32275
+ 0.895531 0 19 tcp 40 ------- 0 14.1506 19.1055 0 31835
d 0.895531 0 19 tcp 40 ------- 0 14.1506 19.1055 0 31835
+ 0.895595 0 19 tcp 40 ------- 0 14.1494 19.1043 0 32682
d 0.895595 0 19 tcp 40 ------- 0 14.1494 19.1043 0 32682
+ 0.895755 0 19 tcp 40 ------- 0 12.1117 19.990 0 33096
d 0.895755 0 19 tcp 40 ------- 0 12.1117 19.990 0 33096
+ 0.909653 0 19 tcp 1540 ------- 0 0.1293 19.604 4 35625
d 0.909653 0 19 tcp 1540 ------- 0 0.1293 19.604 4 35625
+ 0.916075 0 19 tcp 40 ------- 0 4.1194 19.844 0 35212
d 0.916075 0 19 tcp 40 ------- 0 4.1194 19.844 0 35212
+ 0.91817 0 19 tcp 40 ------- 0 0.1264 19.575 0 36021
d 0.91817 0 19 tcp 40 ------- 0 0.1264 19.575 0 36021
+ 0.922395 0 19 tcp 40 ------- 0 4.1183 19.833 0 35456
d 0.922395 0 19 tcp 40 ------- 0 4.1183 19.833 0 35456
+ 0.929761 0 19 tcp 40 ------- 0 0.1281 19.592 0 36482
d 0.929761 0 19 tcp 40 ------- 0 0.1281 19.592 0 36482
+ 0.931355 0 19 tcp 40 ------- 0 2.1129 19.666 0 34575
d 0.931355 0 19 tcp 40 ------- 0 2.1129 19.666 0 34575
+ 0.932683 0 19 tcp 40 ------- 0 2.1125 19.662 0 34707
d 0.932683 0 19 tcp 40 ------- 0 2.1125 19.662 0 34707
+ 0.93632 0 19 tcp 1540 ---A--- 0 0.1249 19.560 3 36732
d 0.93632 0 19 tcp 1540 ---A--- 0 0.1249 19.560 3 36732
+ 0.954267 0 19 tcp 40 ------- 0 9.1239 19.926 0 35263
d 0.954267 0 19 tcp 40 ------- 0 9.1239 19.926 0 35263
+ 0.95493 0 19 tcp 40 ------- 0 3.1307 19.784 0 36479
d 0.95493 0 19 tcp 40 ------- 0 3.1307 19.784 0 36479
- 0.956349 0 19 tcp 40 ------- 0 24.365 19.1194 0 18571
r 0.958068 0 19 tcp 1540 ---A--- 0 0.1296 19.607 1 23913
- 0.958483 0 19 tcp 40 ------- 0 12.1115 19.988 0 23114
r 0.960201 0 19 tcp 40 ------- 0 24.365 19.1194 0 18571
- 0.960616 0 19 ack 40 ------- 0 0.439 19.7 0 26741
+ 0.961723 0 19 ack 40 ------- 0 10.683 19.238 0 35632
+ 0.961755 0 19 ack 40 ------- 0 10.658 19.213 0 35691
r 0.962335 0 19 tcp 40 ------- 0 12.1115 19.988 0 23114
- 0.962749 0 19 tcp 1540 ---A--- 0 2.1185 19.722 2 26249
+ 0.964251 0 19 tcp 40 ------- 0 9.1260 19.947 0 35522
r 0.964468 0 19 ack 40 ------- 0 0.439 19.7 0 26741
+ 0.965547 0 19 tcp 40 ------- 0 2.1172 19.709 0 36687
+ 0.986939 0 19 tcp 40 ------- 0 9.1245 19.932 0 36706
d 0.986939 0 19 tcp 40 ------- 0 9.1245 19.932 0 36706
+ 0.994569 0 19 tcp 40 ------- 0 0.1239 19.550 0 39270
d 0.994569 0 19 tcp 40 ------- 0 0.1239 19.550 0 39270
+ 1.010642 0 19 tcp 40 ------- 0 3.1323 19.800 0 38959
d 1.010642 0 19 tcp 40 ------- 0 3.1323 19.800 0 38959
+ 1.011499 0 19 tcp 40 ------- 0 5.1512 19.880 0 37705
d 1.011499 0 19 tcp 40 ------- 0 5.1512 19.880 0 37705
+ 1.028545 0 19 tcp 40 ------- 0 0.1263 19.574 0 40714
d 1.028545 0 19 tcp 40 ------- 0 0.1263 19.574 0 40714
+ 1.042155 0 19 tcp 40 ------- 0 12.1123 19.996 0 38202