+ 0.009227 14 15 rtProtoDV 26 ------- 0 14.1673 15.1521 -1 245
- 0.009227 14 15 rtProtoDV 26 ------- 0 14.1673 15.1521 -1 245
r 0.010973 14 15 rtProtoDV 26 ------- 0 14.1673 15.1521 -1 245
+ 0.0111 14 15 rtProtoDV 26 ------- 0 14.1673 15.1521 -1 373
- 0.0111 14 15 rtProtoDV 26 ------- 0 14.1673 15.1521 -1 373
+ 0.012267 14 15 rtProtoDV 26 ------- 0 14.1673 15.1521 -1 431
- 0.012267 14 15 rtProtoDV 26 ------- 0 14.1673 15.1521 -1 431
+ 0.012554 14 15 rtProtoDV 26 ------- 0 14.1673 15.1521 -1 447
- 0.012554 14 15 rtProtoDV 26 ------- 0 14.1673 15.1521 -1 447
+ 0.012637 14 15 rtProtoDV 26 ------- 0 14.1673 15.1521 -1 452
- 0.012637 14 15 rtProtoDV 26 ------- 0 14.1673 15.1521 -1 452
r 0.012845 14 15 rtProtoDV 26 ------- 0 14.1673 15.1521 -1 373
+ 0.013386 14 15 rtProtoDV 26 ------- 0 14.1673 15.1521 -1 485
- 0.013386 14 15 rtProtoDV 26 ------- 0 14.1673 15.1521 -1 485
r 0.014012 14 15 rtProtoDV 26 ------- 0 14.1673 15.1521 -1 431
r 0.014299 14 15 rtProtoDV 26 ------- 0 14.1673 15.1521 -1 447
r 0.014382 14 15 rtProtoDV 26 ------- 0 14.1673 15.1521 -1 452
r 0.015131 14 15 rtProtoDV 26 ------- 0 14.1673 15.1521 -1 485
+ 0.017538 14 15 ack 40 ------- 0 13.839 15.398 0 624
- 0.017538 14 15 ack 40 ------- 0 13.839 15.398 0 624
r 0.019329 14 15 ack 40 ------- 0 13.839 15.398 0 624
+ 0.023261 14 15 rtProtoDV 26 ------- 0 14.1673 15.1521 -1 842
- 0.023261 14 15 rtProtoDV 26 ------- 0 14.1673 15.1521 -1 842
r 0.025007 14 15 rtProtoDV 26 ------- 0 14.1673 15.1521 -1 842
+ 0.025042 14 15 tcp 40 ------- 0 14.1305 16.694 0 877
- 0.025042 14 15 tcp 40 ------- 0 14.1305 16.694 0 877
+ 0.026792 14 15 tcp 40 ------- 0 13.1308 17.953 0 892
- 0.026792 14 15 tcp 40 ------- 0 13.1308 17.953 0 892
r 0.026833 14 15 tcp 40 ------- 0 14.1305 16.694 0 877
r 0.028583 14 15 tcp 40 ------- 0 13.1308 17.953 0 892
+ 0.028841 14 15 ack 40 ------- 0 14.358 0.1125 0 963
- 0.028841 14 15 ack 40 ------- 0 14.358 0.1125 0 963
+ 0.029435 14 15 ack 40 ------- 0 13.839 15.398 1 954
- 0.029435 14 15 ack 40 ------- 0 13.839 15.398 1 954
+ 0.029963 14 15 tcp 40 ------- 0 13.1325 17.970 0 974
- 0.029963 14 15 tcp 40 ------- 0 13.1325 17.970 0 974
+ 0.030573 14 15 tcp 40 ------- 0 13.1370 17.1015 0 988
- 0.030573 14 15 tcp 40 ------- 0 13.1370 17.1015 0 988
r 0.030631 14 15 ack 40 ------- 0 14.358 0.1125 0 963
r 0.031225 14 15 ack 40 ------- 0 13.839 15.398 1 954
r 0.031753 14 15 tcp 40 ------- 0 13.1325 17.970 0 974
+ 0.03177 14 15 tcp 40 ------- 0 14.1184 15.972 0 1039
- 0.03177 14 15 tcp 40 ------- 0 14.1184 15.972 0 1039
r 0.032364 14 15 tcp 40 ------- 0 13.1370 17.1015 0 988
r 0.03356 14 15 tcp 40 ------- 0 14.1184 15.972 0 1039
+ 0.034363 14 15 ack 40 ------- 0 13.839 15.398 2 1075
- 0.034363 14 15 ack 40 ------- 0 13.839 15.398 2 1075
+ 0.034491 14 15 ack 40 ------- 0 13.611 4.1055 0 1078
- 0.034491 14 15 ack 40 ------- 0 13.611 4.1055 0 1078
+ 0.035023 14 15 ack 40 ------- 0 14.347 0.1114 0 1107
- 0.035023 14 15 ack 40 ------- 0 14.347 0.1114 0 1107
+ 0.035351 14 15 tcp 1540 ------- 0 14.1184 15.972 1 1117
- 0.035351 14 15 tcp 1540 ------- 0 14.1184 15.972 1 1117
+ 0.035351 14 15 tcp 1540 ------- 0 14.1184 15.972 2 1118
+ 0.035575 14 15 ack 40 ------- 0 14.717 6.1157 0 1125
r 0.036153 14 15 ack 40 ------- 0 13.839 15.398 2 1075
r 0.036281 14 15 ack 40 ------- 0 13.611 4.1055 0 1078
r 0.036813 14 15 ack 40 ------- 0 14.347 0.1114 0 1107
+ 0.037084 14 15 tcp 40 ------- 0 13.1354 17.999 0 1141
- 0.040279 14 15 tcp 1540 ------- 0 14.1184 15.972 2 1118
r 0.041941 14 15 tcp 1540 ------- 0 14.1184 15.972 1 1117
+ 0.042024 14 15 ack 40 ------- 0 14.329 0.1096 0 1281
+ 0.042343 14 15 tcp 40 ------- 0 14.1363 17.1079 0 1285
+ 0.043648 14 15 ack 40 ------- 0 13.839 15.398 3 1302
+ 0.043731 14 15 tcp 1540 ------- 0 14.1184 15.972 3 1325
+ 0.043731 14 15 tcp 1540 ------- 0 14.1184 15.972 4 1326
+ 0.044347 14 15 tcp 40 ------- 0 14.49 2.462 0 1342
+ 0.045093 14 15 tcp 40 ------- 0 14.1180 15.968 0 1365
- 0.045207 14 15 ack 40 ------- 0 14.717 6.1157 0 1125
- 0.045335 14 15 tcp 40 ------- 0 13.1354 17.999 0 1141
- 0.045463 14 15 ack 40 ------- 0 14.329 0.1096 0 1281
- 0.045591 14 15 tcp 40 ------- 0 14.1363 17.1079 0 1285
- 0.045719 14 15 ack 40 ------- 0 13.839 15.398 3 1302
- 0.045847 14 15 tcp 1540 ------- 0 14.1184 15.972 3 1325
+ 0.045942 14 15 tcp 40 ------- 0 13.1461 20.1103 0 1366
r 0.046869 14 15 tcp 1540 ------- 0 14.1184 15.972 2 1118
r 0.046997 14 15 ack 40 ------- 0 14.717 6.1157 0 1125
r 0.047125 14 15 tcp 40 ------- 0 13.1354 17.999 0 1141
r 0.047253 14 15 ack 40 ------- 0 14.329 0.1096 0 1281
r 0.047381 14 15 tcp 40 ------- 0 14.1363 17.1079 0 1285
r 0.047509 14 15 ack 40 ------- 0 13.839 15.398 3 1302
+ 0.048576 14 15 ack 40 ------- 0 13.839 15.398 4 1424
+ 0.048659 14 15 tcp 1540 ------- 0 14.1184 15.972 5 1451
+ 0.048659 14 15 tcp 1540 ------- 0 14.1184 15.972 6 1452
+ 0.049442 14 15 tcp 40 ------- 0 13.1259 17.904 0 1448
+ 0.049676 14 15 tcp 40 ------- 0 13.1319 17.964 0 1454
- 0.050775 14 15 tcp 1540 ------- 0 14.1184 15.972 4 1326
+ 0.051381 14 15 tcp 40 ------- 0 14.1173 15.961 0 1521
r 0.052437 14 15 tcp 1540 ------- 0 14.1184 15.972 3 1325
+ 0.053504 14 15 ack 40 ------- 0 13.839 15.398 5 1554
d 0.053504 14 15 ack 40 ------- 0 13.839 15.398 5 1554
- 0.055703 14 15 tcp 40 ------- 0 14.49 2.462 0 1342
- 0.055831 14 15 tcp 40 ------- 0 14.1180 15.968 0 1365
- 0.055959 14 15 tcp 40 ------- 0 13.1461 20.1103 0 1366
- 0.056087 14 15 ack 40 ------- 0 13.839 15.398 4 1424
- 0.056215 14 15 tcp 1540 ------- 0 14.1184 15.972 5 1451
+ 0.056231 14 15 ack 40 ------- 0 14.358 0.1125 1 1649
+ 0.056359 14 15 ack 40 ------- 0 14.1119 20.551 0 1651
r 0.057365 14 15 tcp 1540 ------- 0 14.1184 15.972 4 1326
r 0.057493 14 15 tcp 40 ------- 0 14.49 2.462 0 1342
r 0.057621 14 15 tcp 40 ------- 0 14.1180 15.968 0 1365
r 0.057749 14 15 tcp 40 ------- 0 13.1461 20.1103 0 1366
r 0.057877 14 15 ack 40 ------- 0 13.839 15.398 4 1424
+ 0.058432 14 15 ack 40 ------- 0 13.839 15.398 6 1687
+ 0.05856 14 15 ack 40 ------- 0 13.603 4.1047 0 1689
+ 0.058688 14 15 ack 40 ------- 0 13.388 0.1018 0 1692
- 0.061143 14 15 tcp 1540 ------- 0 14.1184 15.972 6 1452
+ 0.061287 14 15 ack 40 ------- 0 14.358 0.1125 2 1787
+ 0.061415 14 15 ack 40 ------- 0 14.716 6.1156 0 1789
d 0.061415 14 15 ack 40 ------- 0 14.716 6.1156 0 1789
+ 0.061543 14 15 tcp 1540 ------- 0 14.1184 15.972 7 1791
d 0.061543 14 15 tcp 1540 ------- 0 14.1184 15.972 7 1791
+ 0.061543 14 15 tcp 1540 ------- 0 14.1184 15.972 8 1792
d 0.061543 14 15 tcp 1540 ------- 0 14.1184 15.972 8 1792
+ 0.061671 14 15 ack 40 ------- 0 14.1117 20.549 0 1795
d 0.061671 14 15 ack 40 ------- 0 14.1117 20.549 0 1795
+ 0.061799 14 15 ack 40 ------- 0 14.615 5.1340 0 1803
d 0.061799 14 15 ack 40 ------- 0 14.615 5.1340 0 1803
r 0.062805 14 15 tcp 1540 ------- 0 14.1184 15.972 5 1451
+ 0.065166 14 15 tcp 40 ------- 0 13.1476 20.1118 0 1874
d 0.065166 14 15 tcp 40 ------- 0 13.1476 20.1118 0 1874
- 0.066071 14 15 tcp 40 ------- 0 13.1259 17.904 0 1448
+ 0.06608 14 15 ack 40 ------- 0 13.611 4.1055 1 1904
- 0.066199 14 15 tcp 40 ------- 0 13.1319 17.964 0 1454
- 0.066327 14 15 tcp 40 ------- 0 14.1173 15.961 0 1521
- 0.066455 14 15 ack 40 ------- 0 14.358 0.1125 1 1649
- 0.066583 14 15 ack 40 ------- 0 14.1119 20.551 0 1651
- 0.066711 14 15 ack 40 ------- 0 13.839 15.398 6 1687
+ 0.066727 14 15 ack 40 ------- 0 14.347 0.1114 1 1932
- 0.066839 14 15 ack 40 ------- 0 13.603 4.1047 0 1689
- 0.066967 14 15 ack 40 ------- 0 13.388 0.1018 0 1692
- 0.067095 14 15 ack 40 ------- 0 14.358 0.1125 2 1787
- 0.067223 14 15 ack 40 ------- 0 13.611 4.1055 1 1904
- 0.067351 14 15 ack 40 ------- 0 14.347 0.1114 1 1932
r 0.067733 14 15 tcp 1540 ------- 0 14.1184 15.972 6 1452
r 0.067861 14 15 tcp 40 ------- 0 13.1259 17.904 0 1448
r 0.067989 14 15 tcp 40 ------- 0 13.1319 17.964 0 1454
r 0.068117 14 15 tcp 40 ------- 0 14.1173 15.961 0 1521
r 0.068245 14 15 ack 40 ------- 0 14.358 0.1125 1 1649
r 0.068373 14 15 ack 40 ------- 0 14.1119 20.551 0 1651
r 0.068501 14 15 ack 40 ------- 0 13.839 15.398 6 1687
r 0.068629 14 15 ack 40 ------- 0 13.603 4.1047 0 1689
r 0.068757 14 15 ack 40 ------- 0 13.388 0.1018 0 1692
r 0.068885 14 15 ack 40 ------- 0 14.358 0.1125 2 1787
r 0.069013 14 15 ack 40 ------- 0 13.611 4.1055 1 1904
r 0.069141 14 15 ack 40 ------- 0 14.347 0.1114 1 1932
+ 0.071008 14 15 ack 40 ------- 0 13.839 15.398 7 2054
- 0.071008 14 15 ack 40 ------- 0 13.839 15.398 7 2054
+ 0.071738 14 15 ack 40 ------- 0 14.347 0.1114 2 2109
- 0.071738 14 15 ack 40 ------- 0 14.347 0.1114 2 2109
+ 0.071866 14 15 tcp 1540 ------- 0 14.1184 15.972 9 2112
+ 0.071866 14 15 tcp 1540 ------- 0 14.1184 15.972 10 2113
- 0.071866 14 15 tcp 1540 ------- 0 14.1184 15.972 9 2112
+ 0.071994 14 15 tcp 1540 ------- 0 14.1180 15.968 1 2120
+ 0.071994 14 15 tcp 1540 ------- 0 14.1180 15.968 2 2121
+ 0.072122 14 15 ack 40 ------- 0 14.337 0.1104 0 2126
+ 0.072565 14 15 tcp 40 ------- 0 13.1279 17.924 0 2110
r 0.072798 14 15 ack 40 ------- 0 13.839 15.398 7 2054
r 0.073529 14 15 ack 40 ------- 0 14.347 0.1114 2 2109
+ 0.075422 14 15 tcp 40 ------- 0 14.1327 17.1043 0 2229
+ 0.075936 14 15 ack 40 ------- 0 13.839 15.398 8 2221
- 0.076794 14 15 tcp 1540 ------- 0 14.1184 15.972 10 2113
+ 0.077178 14 15 tcp 1540 ------- 0 14.1184 15.972 11 2285
+ 0.077178 14 15 tcp 1540 ------- 0 14.1184 15.972 12 2286
+ 0.077306 14 15 tcp 1540 ------- 0 14.1184 15.972 13 2292
+ 0.077306 14 15 tcp 1540 ------- 0 14.1184 15.972 14 2293
d 0.077306 14 15 tcp 1540 ------- 0 14.1184 15.972 14 2293
+ 0.077434 14 15 tcp 1540 ------- 0 14.1173 15.961 1 2298
d 0.077434 14 15 tcp 1540 ------- 0 14.1173 15.961 1 2298
+ 0.077434 14 15 tcp 1540 ------- 0 14.1173 15.961 2 2299
d 0.077434 14 15 tcp 1540 ------- 0 14.1173 15.961 2 2299
r 0.078457 14 15 tcp 1540 ------- 0 14.1184 15.972 9 2112
+ 0.08112 14 15 ack 40 ------- 0 13.611 4.1055 2 2402
d 0.08112 14 15 ack 40 ------- 0 13.611 4.1055 2 2402
- 0.081722 14 15 tcp 1540 ------- 0 14.1180 15.968 1 2120
+ 0.082362 14 15 ack 40 ------- 0 14.329 0.1096 1 2474
+ 0.082445 14 15 rtProtoDV 26 ------- 0 14.1673 15.1521 -1 2480
d 0.082445 14 15 rtProtoDV 26 ------- 0 14.1673 15.1521 -1 2480
+ 0.082496 14 15 tcp 40 ------- 0 14.1346 17.1062 0 2481
d 0.082496 14 15 tcp 40 ------- 0 14.1346 17.1062 0 2481
r 0.083385 14 15 tcp 1540 ------- 0 14.1184 15.972 10 2113
+ 0.086048 14 15 tcp 1540 ------- 0 13.1308 17.953 1 2412
d 0.086048 14 15 tcp 1540 ------- 0 13.1308 17.953 1 2412
- 0.08665 14 15 tcp 1540 ------- 0 14.1180 15.968 2 2121
+ 0.087373 14 15 ack 40 ------- 0 14.329 0.1096 2 2636
+ 0.087501 14 15 tcp 1540 ------- 0 14.1184 15.972 15 2643
d 0.087501 14 15 tcp 1540 ------- 0 14.1184 15.972 15 2643
+ 0.087629 14 15 ack 40 ------- 0 14.643 5.1368 0 2648
d 0.087629 14 15 ack 40 ------- 0 14.643 5.1368 0 2648
+ 0.087757 14 15 tcp 1540 ------- 0 14.1184 15.972 16 2652
d 0.087757 14 15 tcp 1540 ------- 0 14.1184 15.972 16 2652
+ 0.087805 14 15 tcp 40 ------- 0 14.1235 15.1023 0 2653
d 0.087805 14 15 tcp 40 ------- 0 14.1235 15.1023 0 2653
r 0.088313 14 15 tcp 1540 ------- 0 14.1180 15.968 1 2120
+ 0.089975 14 15 tcp 1540 ------- 0 14.1363 17.1079 1 2727
d 0.089975 14 15 tcp 1540 ------- 0 14.1363 17.1079 1 2727
+ 0.089975 14 15 tcp 1540 ------- 0 14.1363 17.1079 2 2728
d 0.089975 14 15 tcp 1540 ------- 0 14.1363 17.1079 2 2728
+ 0.090103 14 15 tcp 1540 ------- 0 14.1305 16.694 1 2734
d 0.090103 14 15 tcp 1540 ------- 0 14.1305 16.694 1 2734
+ 0.090103 14 15 tcp 1540 ------- 0 14.1305 16.694 2 2735
d 0.090103 14 15 tcp 1540 ------- 0 14.1305 16.694 2 2735
+ 0.090231 14 15 tcp 1540 ------- 0 14.1180 15.968 3 2742
d 0.090231 14 15 tcp 1540 ------- 0 14.1180 15.968 3 2742
+ 0.090231 14 15 tcp 1540 ------- 0 14.1180 15.968 4 2743
d 0.090231 14 15 tcp 1540 ------- 0 14.1180 15.968 4 2743
+ 0.090976 14 15 tcp 1540 ------- 0 13.1308 17.953 2 2413
d 0.090976 14 15 tcp 1540 ------- 0 13.1308 17.953 2 2413
+ 0.091104 14 15 ack 40 ------- 0 13.421 0.1051 0 2415
d 0.091104 14 15 ack 40 ------- 0 13.421 0.1051 0 2415
- 0.091578 14 15 ack 40 ------- 0 14.337 0.1104 0 2126
- 0.091706 14 15 tcp 40 ------- 0 13.1279 17.924 0 2110
- 0.091834 14 15 tcp 40 ------- 0 14.1327 17.1043 0 2229
- 0.091962 14 15 ack 40 ------- 0 13.839 15.398 8 2221
- 0.09209 14 15 tcp 1540 ------- 0 14.1184 15.972 11 2285
r 0.093241 14 15 tcp 1540 ------- 0 14.1180 15.968 2 2121
r 0.093369 14 15 ack 40 ------- 0 14.337 0.1104 0 2126
r 0.093497 14 15 tcp 40 ------- 0 13.1279 17.924 0 2110
r 0.093625 14 15 tcp 40 ------- 0 14.1327 17.1043 0 2229
r 0.093753 14 15 ack 40 ------- 0 13.839 15.398 8 2221
+ 0.095031 14 15 tcp 1540 ------- 0 14.1180 15.968 5 2869
+ 0.095031 14 15 tcp 1540 ------- 0 14.1180 15.968 6 2870
+ 0.096032 14 15 tcp 1540 ------- 0 13.1325 17.970 1 2416
+ 0.096079 14 15 tcp 40 ------- 0 14.35 2.448 0 2905
+ 0.096332 14 15 tcp 40 ------- 0 14.8 1.592 0 2913
+ 0.096941 14 15 tcp 40 ------- 0 14.1546 21.788 0 2938
d 0.096941 14 15 tcp 40 ------- 0 14.1546 21.788 0 2938
- 0.097018 14 15 tcp 1540 ------- 0 14.1184 15.972 12 2286
+ 0.097088 14 15 ack 40 ------- 0 14.494 3.1118 0 2944
+ 0.097542 14 15 ack 40 ------- 0 14.654 5.1379 0 2955
d 0.097542 14 15 ack 40 ------- 0 14.654 5.1379 0 2955
+ 0.09767 14 15 ack 40 ------- 0 14.501 3.1125 0 2959
d 0.09767 14 15 ack 40 ------- 0 14.501 3.1125 0 2959
r 0.098681 14 15 tcp 1540 ------- 0 14.1184 15.972 11 2285
+ 0.100471 14 15 tcp 1540 ---A--- 0 14.1184 15.972 7 3060
d 0.100471 14 15 tcp 1540 ---A--- 0 14.1184 15.972 7 3060
+ 0.10096 14 15 tcp 1540 ------- 0 13.1325 17.970 2 2417
d 0.10096 14 15 tcp 1540 ------- 0 13.1325 17.970 2 2417
+ 0.101171 14 15 tcp 40 ------- 0 13.30 0.325 0 2589
d 0.101171 14 15 tcp 40 ------- 0 13.30 0.325 0 2589
+ 0.101299 14 15 tcp 40 ------- 0 13.11 0.306 0 2618
d 0.101299 14 15 tcp 40 ------- 0 13.11 0.306 0 2618
+ 0.101427 14 15 tcp 40 ------- 0 13.9 0.304 0 3056
d 0.101427 14 15 tcp 40 ------- 0 13.9 0.304 0 3056
- 0.101946 14 15 tcp 1540 ------- 0 14.1184 15.972 13 2292
+ 0.103471 14 15 tcp 40 ------- 0 14.1488 19.1037 0 3171
r 0.103609 14 15 tcp 1540 ------- 0 14.1184 15.972 12 2286
+ 0.106355 14 15 tcp 1540 ------- 0 13.1370 17.1015 1 3064
d 0.106355 14 15 tcp 1540 ------- 0 13.1370 17.1015 1 3064
- 0.106874 14 15 ack 40 ------- 0 14.329 0.1096 1 2474
+ 0.107 14 15 tcp 40 ------- 0 14.117 6.614 0 3286
- 0.107002 14 15 ack 40 ------- 0 14.329 0.1096 2 2636
- 0.10713 14 15 tcp 1540 ------- 0 14.1180 15.968 5 2869
+ 0.10805 14 15 tcp 40 ------- 0 14.1380 17.1096 0 3318
r 0.108537 14 15 tcp 1540 ------- 0 14.1184 15.972 13 2292
r 0.108665 14 15 ack 40 ------- 0 14.329 0.1096 1 2474
r 0.108793 14 15 ack 40 ------- 0 14.329 0.1096 2 2636
+ 0.10943 14 15 ack 40 ------- 0 14.717 6.1157 1 3367
+ 0.111283 14 15 tcp 1540 ------- 0 13.1370 17.1015 2 3065
d 0.111283 14 15 tcp 1540 ------- 0 13.1370 17.1015 2 3065
+ 0.111411 14 15 tcp 40 ------- 0 13.1508 21.764 0 3383
d 0.111411 14 15 tcp 40 ------- 0 13.1508 21.764 0 3383
+ 0.11162 14 15 tcp 40 ------- 0 14.1584 24.805 0 3438
d 0.11162 14 15 tcp 40 ------- 0 14.1584 24.805 0 3438
- 0.112058 14 15 tcp 1540 ------- 0 14.1180 15.968 6 2870
r 0.113721 14 15 tcp 1540 ------- 0 14.1180 15.968 5 2869
+ 0.11387 14 15 tcp 40 ------- 0 13.1331 17.976 0 3481
+ 0.114486 14 15 ack 40 ------- 0 14.717 6.1157 2 3508
d 0.114486 14 15 ack 40 ------- 0 14.717 6.1157 2 3508
+ 0.114614 14 15 ack 40 ------- 0 14.1027 20.459 0 3516
d 0.114614 14 15 ack 40 ------- 0 14.1027 20.459 0 3516
+ 0.116211 14 15 ack 40 ------- 0 13.839 15.398 9 3539
d 0.116211 14 15 ack 40 ------- 0 13.839 15.398 9 3539
- 0.116986 14 15 tcp 1540 ------- 0 13.1325 17.970 1 2416
r 0.118649 14 15 tcp 1540 ------- 0 14.1180 15.968 6 2870
+ 0.119798 14 15 ack 40 ------- 0 14.358 0.1125 3 3664
+ 0.121139 14 15 ack 40 ------- 0 13.839 15.398 10 3677
d 0.121139 14 15 ack 40 ------- 0 13.839 15.398 10 3677
+ 0.121267 14 15 ack 40 ------- 0 13.364 0.994 0 3681
d 0.121267 14 15 ack 40 ------- 0 13.364 0.994 0 3681
+ 0.121816 14 15 tcp 40 ------- 0 14.109 5.683 0 3732
d 0.121816 14 15 tcp 40 ------- 0 14.109 5.683 0 3732
- 0.121914 14 15 tcp 40 ------- 0 14.35 2.448 0 2905
- 0.122042 14 15 tcp 40 ------- 0 14.8 1.592 0 2913
- 0.12217 14 15 ack 40 ------- 0 14.494 3.1118 0 2944
- 0.122298 14 15 tcp 40 ------- 0 14.1488 19.1037 0 3171
- 0.122426 14 15 tcp 40 ------- 0 14.117 6.614 0 3286
- 0.122554 14 15 tcp 40 ------- 0 14.1380 17.1096 0 3318
- 0.122682 14 15 ack 40 ------- 0 14.717 6.1157 1 3367
- 0.12281 14 15 tcp 40 ------- 0 13.1331 17.976 0 3481
- 0.122938 14 15 ack 40 ------- 0 14.358 0.1125 3 3664
r 0.123577 14 15 tcp 1540 ------- 0 13.1325 17.970 1 2416
r 0.123705 14 15 tcp 40 ------- 0 14.35 2.448 0 2905
r 0.123833 14 15 tcp 40 ------- 0 14.8 1.592 0 2913
r 0.123961 14 15 ack 40 ------- 0 14.494 3.1118 0 2944
r 0.124089 14 15 tcp 40 ------- 0 14.1488 19.1037 0 3171
+ 0.124172 14 15 tcp 40 ------- 0 14.1307 17.1023 0 3806
- 0.124172 14 15 tcp 40 ------- 0 14.1307 17.1023 0 3806
r 0.124217 14 15 tcp 40 ------- 0 14.117 6.614 0 3286
r 0.124345 14 15 tcp 40 ------- 0 14.1380 17.1096 0 3318
r 0.124473 14 15 ack 40 ------- 0 14.717 6.1157 1 3367
r 0.124601 14 15 tcp 40 ------- 0 13.1331 17.976 0 3481
+ 0.124726 14 15 ack 40 ------- 0 14.358 0.1125 4 3827
- 0.124726 14 15 ack 40 ------- 0 14.358 0.1125 4 3827
r 0.124729 14 15 ack 40 ------- 0 14.358 0.1125 3 3664
+ 0.124854 14 15 tcp 1540 ------- 0 14.1180 15.968 7 3836
- 0.124854 14 15 tcp 1540 ------- 0 14.1180 15.968 7 3836
+ 0.125076 14 15 tcp 40 ------- 0 13.1518 21.774 0 3809
r 0.125963 14 15 tcp 40 ------- 0 14.1307 17.1023 0 3806
r 0.126516 14 15 ack 40 ------- 0 14.358 0.1125 4 3827
+ 0.127491 14 15 tcp 40 ------- 0 14.1592 24.813 0 3947
+ 0.128573 14 15 tcp 40 ------- 0 14.171 6.668 0 3970
+ 0.129782 14 15 ack 40 ------- 0 14.358 0.1125 5 4007
- 0.129782 14 15 tcp 40 ------- 0 13.1518 21.774 0 3809
- 0.12991 14 15 tcp 40 ------- 0 14.1592 24.813 0 3947
- 0.130038 14 15 tcp 40 ------- 0 14.171 6.668 0 3970
- 0.130166 14 15 ack 40 ------- 0 14.358 0.1125 5 4007
r 0.131444 14 15 tcp 1540 ------- 0 14.1180 15.968 7 3836
r 0.131572 14 15 tcp 40 ------- 0 13.1518 21.774 0 3809
r 0.1317 14 15 tcp 40 ------- 0 14.1592 24.813 0 3947
r 0.131828 14 15 tcp 40 ------- 0 14.171 6.668 0 3970
r 0.131956 14 15 ack 40 ------- 0 14.358 0.1125 5 4007
+ 0.13471 14 15 ack 40 ------- 0 14.358 0.1125 6 4153
- 0.13471 14 15 ack 40 ------- 0 14.358 0.1125 6 4153
+ 0.134838 14 15 tcp 1540 ------- 0 14.1180 15.968 8 4161
- 0.134838 14 15 tcp 1540 ------- 0 14.1180 15.968 8 4161
+ 0.136051 14 15 ack 40 ------- 0 13.839 15.398 10 4178
r 0.1365 14 15 ack 40 ------- 0 14.358 0.1125 6 4153
+ 0.1374 14 15 tcp 40 ------- 0 14.1318 17.1034 0 4234
+ 0.137819 14 15 tcp 40 ------- 0 14.1294 16.683 0 4249
+ 0.139759 14 15 tcp 40 ------- 0 14.1401 18.704 0 4307
+ 0.139766 14 15 ack 40 ------- 0 14.347 0.1114 3 4308
- 0.139766 14 15 ack 40 ------- 0 13.839 15.398 10 4178
- 0.139894 14 15 tcp 40 ------- 0 14.1318 17.1034 0 4234
- 0.140022 14 15 tcp 40 ------- 0 14.1294 16.683 0 4249
- 0.14015 14 15 tcp 40 ------- 0 14.1401 18.704 0 4307
+ 0.140178 14 15 tcp 40 ------- 0 13.1318 17.963 0 4291
- 0.140278 14 15 ack 40 ------- 0 14.347 0.1114 3 4308
- 0.140406 14 15 tcp 40 ------- 0 13.1318 17.963 0 4291
+ 0.140979 14 15 ack 40 ------- 0 13.839 15.398 10 4328
- 0.140979 14 15 ack 40 ------- 0 13.839 15.398 10 4328
r 0.141428 14 15 tcp 1540 ------- 0 14.1180 15.968 8 4161
r 0.141556 14 15 ack 40 ------- 0 13.839 15.398 10 4178
r 0.141684 14 15 tcp 40 ------- 0 14.1318 17.1034 0 4234
r 0.141812 14 15 tcp 40 ------- 0 14.1294 16.683 0 4249
r 0.14194 14 15 tcp 40 ------- 0 14.1401 18.704 0 4307
r 0.142068 14 15 ack 40 ------- 0 14.347 0.1114 3 4308
r 0.142196 14 15 tcp 40 ------- 0 13.1318 17.963 0 4291
r 0.14277 14 15 ack 40 ------- 0 13.839 15.398 10 4328
+ 0.143673 14 15 tcp 40 ------- 0 14.1671 25.431 0 4434
- 0.143673 14 15 tcp 40 ------- 0 14.1671 25.431 0 4434
+ 0.143874 14 15 tcp 40 ------- 0 14.1383 17.1099 0 4441
- 0.143874 14 15 tcp 40 ------- 0 14.1383 17.1099 0 4441
+ 0.144694 14 15 ack 40 ------- 0 14.347 0.1114 4 4474
- 0.144694 14 15 ack 40 ------- 0 14.347 0.1114 4 4474
+ 0.145013 14 15 tcp 40 ------- 0 14.1194 15.982 0 4489
- 0.145013 14 15 tcp 40 ------- 0 14.1194 15.982 0 4489
+ 0.145136 14 15 tcp 40 ------- 0 14.132 6.629 0 4494
- 0.145141 14 15 tcp 40 ------- 0 14.132 6.629 0 4494
r 0.145463 14 15 tcp 40 ------- 0 14.1671 25.431 0 4434
+ 0.145515 14 15 tcp 40 ------- 0 13.1482 20.1124 0 4475
- 0.145515 14 15 tcp 40 ------- 0 13.1482 20.1124 0 4475
r 0.145664 14 15 tcp 40 ------- 0 14.1383 17.1099 0 4441
r 0.146484 14 15 ack 40 ------- 0 14.347 0.1114 4 4474
r 0.146803 14 15 tcp 40 ------- 0 14.1194 15.982 0 4489
r 0.146931 14 15 tcp 40 ------- 0 14.132 6.629 0 4494
r 0.147305 14 15 tcp 40 ------- 0 13.1482 20.1124 0 4475
+ 0.149622 14 15 ack 40 ------- 0 14.347 0.1114 5 4668
- 0.149622 14 15 ack 40 ------- 0 14.347 0.1114 5 4668
+ 0.150019 14 15 tcp 40 ------- 0 14.1599 24.820 0 4680
- 0.150019 14 15 tcp 40 ------- 0 14.1599 24.820 0 4680
+ 0.151232 14 15 tcp 40 ------- 0 13.1210 17.855 0 4698
- 0.151232 14 15 tcp 40 ------- 0 13.1210 17.855 0 4698
r 0.151412 14 15 ack 40 ------- 0 14.347 0.1114 5 4668
r 0.15181 14 15 tcp 40 ------- 0 14.1599 24.820 0 4680
r 0.153022 14 15 tcp 40 ------- 0 13.1210 17.855 0 4698
+ 0.15455 14 15 ack 40 ------- 0 14.347 0.1114 6 4829
- 0.15455 14 15 ack 40 ------- 0 14.347 0.1114 6 4829
+ 0.154678 14 15 ack 40 ------- 0 14.1037 20.469 0 4833
- 0.154678 14 15 ack 40 ------- 0 14.1037 20.469 0 4833
+ 0.154806 14 15 ack 40 ------- 0 14.344 0.1111 0 4840
- 0.154806 14 15 ack 40 ------- 0 14.344 0.1111 0 4840
+ 0.154934 14 15 tcp 1540 ---A--- 0 14.1180 15.968 3 4845
- 0.154934 14 15 tcp 1540 ---A--- 0 14.1180 15.968 3 4845
+ 0.156019 14 15 ack 40 ------- 0 13.603 4.1047 1 4858
r 0.15634 14 15 ack 40 ------- 0 14.347 0.1114 6 4829
r 0.156468 14 15 ack 40 ------- 0 14.1037 20.469 0 4833
r 0.156596 14 15 ack 40 ------- 0 14.344 0.1111 0 4840
+ 0.156817 14 15 tcp 40 ------- 0 14.1436 18.739 0 4905
- 0.159862 14 15 ack 40 ------- 0 13.603 4.1047 1 4858
+ 0.15999 14 15 ack 40 ------- 0 14.337 0.1104 1 5004
- 0.15999 14 15 tcp 40 ------- 0 14.1436 18.739 0 4905
- 0.160118 14 15 ack 40 ------- 0 14.337 0.1104 1 5004
+ 0.160625 14 15 tcp 40 ------- 0 13.1470 20.1112 0 4999
- 0.160625 14 15 tcp 40 ------- 0 13.1470 20.1112 0 4999
+ 0.160947 14 15 ack 40 ------- 0 13.603 4.1047 2 5010
- 0.160947 14 15 ack 40 ------- 0 13.603 4.1047 2 5010
r 0.161524 14 15 tcp 1540 ---A--- 0 14.1180 15.968 3 4845
r 0.161652 14 15 ack 40 ------- 0 13.603 4.1047 1 4858
r 0.16178 14 15 tcp 40 ------- 0 14.1436 18.739 0 4905
r 0.161908 14 15 ack 40 ------- 0 14.337 0.1104 1 5004
r 0.162416 14 15 tcp 40 ------- 0 13.1470 20.1112 0 4999
r 0.162738 14 15 ack 40 ------- 0 13.603 4.1047 2 5010
+ 0.164918 14 15 ack 40 ------- 0 14.337 0.1104 2 5206
- 0.164918 14 15 ack 40 ------- 0 14.337 0.1104 2 5206
+ 0.165174 14 15 ack 40 ------- 0 14.500 3.1124 0 5226
- 0.165174 14 15 ack 40 ------- 0 14.500 3.1124 0 5226
+ 0.165302 14 15 ack 40 ------- 0 14.529 3.1153 0 5229
- 0.165302 14 15 ack 40 ------- 0 14.529 3.1153 0 5229
+ 0.16543 14 15 tcp 1540 ------- 0 14.1194 15.982 1 5234
+ 0.16543 14 15 tcp 1540 ------- 0 14.1194 15.982 2 5235
- 0.16543 14 15 tcp 1540 ------- 0 14.1194 15.982 1 5234
+ 0.165558 14 15 ack 40 ------- 0 14.1057 20.489 0 5244
+ 0.165686 14 15 tcp 1540 ------- 0 14.1327 17.1043 1 5251
+ 0.165686 14 15 tcp 1540 ------- 0 14.1327 17.1043 2 5252
+ 0.165755 14 15 tcp 40 ------- 0 14.16 2.429 0 5253
+ 0.165875 14 15 ack 40 ------- 0 13.611 4.1055 3 5222
r 0.166708 14 15 ack 40 ------- 0 14.337 0.1104 2 5206
r 0.166964 14 15 ack 40 ------- 0 14.500 3.1124 0 5226
r 0.167092 14 15 ack 40 ------- 0 14.529 3.1153 0 5229
+ 0.170161 14 15 tcp 40 ------- 0 14.106 5.680 0 5418
- 0.170358 14 15 tcp 1540 ------- 0 14.1194 15.982 2 5235
+ 0.170742 14 15 ack 40 ------- 0 14.1119 20.551 1 5445
+ 0.170803 14 15 ack 40 ------- 0 13.611 4.1055 4 5414
+ 0.17087 14 15 ack 40 ------- 0 14.587 5.1312 0 5456
+ 0.171614 14 15 tcp 40 ------- 0 14.1273 15.1061 0 5509
d 0.171614 14 15 tcp 40 ------- 0 14.1273 15.1061 0 5509
r 0.17202 14 15 tcp 1540 ------- 0 14.1194 15.982 1 5234
+ 0.1725 14 15 tcp 40 ------- 0 13.107 3.446 0 5512
d 0.1725 14 15 tcp 40 ------- 0 13.107 3.446 0 5512
+ 0.174673 14 15 tcp 40 ------- 0 14.1457 18.760 0 5636
d 0.174673 14 15 tcp 40 ------- 0 14.1457 18.760 0 5636
- 0.175286 14 15 ack 40 ------- 0 14.1057 20.489 0 5244
- 0.175414 14 15 tcp 1540 ------- 0 14.1327 17.1043 1 5251
+ 0.175731 14 15 ack 40 ------- 0 13.839 15.398 10 5646
+ 0.175798 14 15 ack 40 ------- 0 14.1119 20.551 2 5678
+ 0.175859 14 15 ack 40 ------- 0 13.714 6.1118 0 5655
d 0.175859 14 15 ack 40 ------- 0 13.714 6.1118 0 5655
+ 0.176247 14 15 tcp 40 ------- 0 14.1594 24.815 0 5697
d 0.176247 14 15 tcp 40 ------- 0 14.1594 24.815 0 5697
r 0.176948 14 15 tcp 1540 ------- 0 14.1194 15.982 2 5235
r 0.177076 14 15 ack 40 ------- 0 14.1057 20.489 0 5244
+ 0.178782 14 15 tcp 40 ------- 0 13.172 6.583 0 5750
d 0.178782 14 15 tcp 40 ------- 0 13.172 6.583 0 5750
+ 0.180309 14 15 tcp 40 ------- 0 14.170 6.667 0 5825
d 0.180309 14 15 tcp 40 ------- 0 14.170 6.667 0 5825
- 0.180342 14 15 tcp 1540 ------- 0 14.1327 17.1043 2 5252
+ 0.180726 14 15 ack 40 ------- 0 14.329 0.1096 3 5832
+ 0.180915 14 15 ack 40 ------- 0 13.842 15.401 0 5819
d 0.180915 14 15 ack 40 ------- 0 13.842 15.401 0 5819
r 0.182004 14 15 tcp 1540 ------- 0 14.1327 17.1043 1 5251
+ 0.185218 14 15 tcp 40 ------- 0 14.67 3.451 0 5981
d 0.185218 14 15 tcp 40 ------- 0 14.67 3.451 0 5981
- 0.18527 14 15 tcp 40 ------- 0 14.16 2.429 0 5253
- 0.185398 14 15 ack 40 ------- 0 13.611 4.1055 3 5222
- 0.185526 14 15 tcp 40 ------- 0 14.106 5.680 0 5418
+ 0.185654 14 15 ack 40 ------- 0 14.329 0.1096 4 5996
- 0.185654 14 15 ack 40 ------- 0 14.1119 20.551 1 5445
+ 0.185696 14 15 tcp 40 ------- 0 13.92 3.431 0 5968
+ 0.185782 14 15 ack 40 ------- 0 14.697 6.1137 0 6003
- 0.185782 14 15 ack 40 ------- 0 13.611 4.1055 4 5414
+ 0.18591 14 15 tcp 1540 ------- 0 14.1180 15.968 4 6010
+ 0.18591 14 15 tcp 1540 ------- 0 14.1180 15.968 5 6011
- 0.18591 14 15 ack 40 ------- 0 14.587 5.1312 0 5456
+ 0.185996 14 15 tcp 40 ------- 0 13.1227 17.872 0 5980
- 0.186038 14 15 ack 40 ------- 0 13.839 15.398 10 5646
- 0.186166 14 15 ack 40 ------- 0 14.1119 20.551 2 5678
- 0.186294 14 15 ack 40 ------- 0 14.329 0.1096 3 5832
- 0.186422 14 15 ack 40 ------- 0 14.329 0.1096 4 5996
- 0.18655 14 15 tcp 40 ------- 0 13.92 3.431 0 5968
- 0.186678 14 15 ack 40 ------- 0 14.697 6.1137 0 6003
- 0.186806 14 15 tcp 1540 ------- 0 14.1180 15.968 4 6010
r 0.186932 14 15 tcp 1540 ------- 0 14.1327 17.1043 2 5252
r 0.18706 14 15 tcp 40 ------- 0 14.16 2.429 0 5253
r 0.187188 14 15 ack 40 ------- 0 13.611 4.1055 3 5222
r 0.187316 14 15 tcp 40 ------- 0 14.106 5.680 0 5418
r 0.187444 14 15 ack 40 ------- 0 14.1119 20.551 1 5445
r 0.187572 14 15 ack 40 ------- 0 13.611 4.1055 4 5414
r 0.1877 14 15 ack 40 ------- 0 14.587 5.1312 0 5456
r 0.187828 14 15 ack 40 ------- 0 13.839 15.398 10 5646
r 0.187956 14 15 ack 40 ------- 0 14.1119 20.551 2 5678
r 0.188084 14 15 ack 40 ------- 0 14.329 0.1096 3 5832
r 0.188212 14 15 ack 40 ------- 0 14.329 0.1096 4 5996
r 0.18834 14 15 tcp 40 ------- 0 13.92 3.431 0 5968
r 0.188468 14 15 ack 40 ------- 0 14.697 6.1137 0 6003
+ 0.190462 14 15 tcp 40 ------- 0 14.76 4.518 0 6160
+ 0.190771 14 15 ack 40 ------- 0 13.388 0.1018 1 6141
+ 0.190838 14 15 ack 40 ------- 0 14.329 0.1096 5 6178
+ 0.190899 14 15 ack 40 ------- 0 13.609 4.1053 0 6144
+ 0.191027 14 15 ack 40 ------- 0 13.443 0.1073 0 6149
+ 0.191155 14 15 ack 40 ------- 0 13.1060 20.446 0 6155
+ 0.191283 14 15 ack 40 ------- 0 13.513 1.1417 0 6161
- 0.191734 14 15 tcp 1540 ------- 0 14.1180 15.968 5 6011
r 0.193396 14 15 tcp 1540 ------- 0 14.1180 15.968 4 6010
+ 0.195766 14 15 ack 40 ------- 0 14.329 0.1096 6 6342
+ 0.195894 14 15 ack 40 ------- 0 14.648 5.1373 0 6350
d 0.195894 14 15 ack 40 ------- 0 14.648 5.1373 0 6350
+ 0.19615 14 15 tcp 1540 ------- 0 14.1194 15.982 3 6365
d 0.19615 14 15 tcp 1540 ------- 0 14.1194 15.982 3 6365
+ 0.19615 14 15 tcp 1540 ------- 0 14.1194 15.982 4 6366
d 0.19615 14 15 tcp 1540 ------- 0 14.1194 15.982 4 6366
+ 0.196278 14 15 tcp 1540 ------- 0 14.1194 15.982 5 6369
d 0.196278 14 15 tcp 1540 ------- 0 14.1194 15.982 5 6369
+ 0.196278 14 15 tcp 1540 ------- 0 14.1194 15.982 6 6370
d 0.196278 14 15 tcp 1540 ------- 0 14.1194 15.982 6 6370
+ 0.196339 14 15 ack 40 ------- 0 13.839 15.398 10 6319
d 0.196339 14 15 ack 40 ------- 0 13.839 15.398 10 6319
- 0.196662 14 15 tcp 40 ------- 0 13.1227 17.872 0 5980
- 0.19679 14 15 tcp 40 ------- 0 14.76 4.518 0 6160
- 0.196918 14 15 ack 40 ------- 0 13.388 0.1018 1 6141
- 0.197046 14 15 ack 40 ------- 0 14.329 0.1096 5 6178
- 0.197174 14 15 ack 40 ------- 0 13.609 4.1053 0 6144
- 0.197302 14 15 ack 40 ------- 0 13.443 0.1073 0 6149
- 0.19743 14 15 ack 40 ------- 0 13.1060 20.446 0 6155
- 0.197558 14 15 ack 40 ------- 0 13.513 1.1417 0 6161
- 0.197686 14 15 ack 40 ------- 0 14.329 0.1096 6 6342
r 0.198324 14 15 tcp 1540 ------- 0 14.1180 15.968 5 6011
r 0.198452 14 15 tcp 40 ------- 0 13.1227 17.872 0 5980
r 0.19858 14 15 tcp 40 ------- 0 14.76 4.518 0 6160
r 0.198708 14 15 ack 40 ------- 0 13.388 0.1018 1 6141
r 0.198836 14 15 ack 40 ------- 0 14.329 0.1096 5 6178
r 0.198964 14 15 ack 40 ------- 0 13.609 4.1053 0 6144
r 0.199092 14 15 ack 40 ------- 0 13.443 0.1073 0 6149
r 0.19922 14 15 ack 40 ------- 0 13.1060 20.446 0 6155
+ 0.199327 14 15 tcp 40 ------- 0 13.175 6.586 0 6459
- 0.199327 14 15 tcp 40 ------- 0 13.175 6.586 0 6459
r 0.199348 14 15 ack 40 ------- 0 13.513 1.1417 0 6161
r 0.199476 14 15 ack 40 ------- 0 14.329 0.1096 6 6342
r 0.201117 14 15 tcp 40 ------- 0 13.175 6.586 0 6459
+ 0.201267 14 15 ack 40 ------- 0 13.839 15.398 10 6528
- 0.201267 14 15 ack 40 ------- 0 13.839 15.398 10 6528
+ 0.201334 14 15 ack 40 ------- 0 14.358 0.1125 7 6555
- 0.201395 14 15 ack 40 ------- 0 14.358 0.1125 7 6555
r 0.203058 14 15 ack 40 ------- 0 13.839 15.398 10 6528