+ 0.010806 6 9 rtProtoDV 26 ------- 0 6.1492 9.1472 -1 341
- 0.010806 6 9 rtProtoDV 26 ------- 0 6.1492 9.1472 -1 341
+ 0.012145 6 9 rtProtoDV 26 ------- 0 6.1492 9.1472 -1 423
- 0.012145 6 9 rtProtoDV 26 ------- 0 6.1492 9.1472 -1 423
+ 0.014187 6 9 rtProtoDV 26 ------- 0 6.1492 9.1472 -1 529
- 0.014187 6 9 rtProtoDV 26 ------- 0 6.1492 9.1472 -1 529
+ 0.0144 6 9 rtProtoDV 26 ------- 0 6.1492 9.1472 -1 534
- 0.0144 6 9 rtProtoDV 26 ------- 0 6.1492 9.1472 -1 534
r 0.015482 6 9 rtProtoDV 26 ------- 0 6.1492 9.1472 -1 341
+ 0.015786 6 9 rtProtoDV 26 ------- 0 6.1492 9.1472 -1 585
- 0.015786 6 9 rtProtoDV 26 ------- 0 6.1492 9.1472 -1 585
r 0.016821 6 9 rtProtoDV 26 ------- 0 6.1492 9.1472 -1 423
+ 0.017914 6 9 rtProtoDV 26 ------- 0 6.1492 9.1472 -1 671
- 0.017914 6 9 rtProtoDV 26 ------- 0 6.1492 9.1472 -1 671
+ 0.018192 6 9 rtProtoDV 26 ------- 0 6.1492 9.1472 -1 685
- 0.018192 6 9 rtProtoDV 26 ------- 0 6.1492 9.1472 -1 685
r 0.018863 6 9 rtProtoDV 26 ------- 0 6.1492 9.1472 -1 529
r 0.019076 6 9 rtProtoDV 26 ------- 0 6.1492 9.1472 -1 534
r 0.020461 6 9 rtProtoDV 26 ------- 0 6.1492 9.1472 -1 585
r 0.02259 6 9 rtProtoDV 26 ------- 0 6.1492 9.1472 -1 671
r 0.022867 6 9 rtProtoDV 26 ------- 0 6.1492 9.1472 -1 685
+ 0.022882 6 9 rtProtoDV 26 ------- 0 6.1492 9.1472 -1 824
- 0.022882 6 9 rtProtoDV 26 ------- 0 6.1492 9.1472 -1 824
r 0.027558 6 9 rtProtoDV 26 ------- 0 6.1492 9.1472 -1 824
+ 0.039368 6 9 ack 40 ------- 0 1.354 9.84 0 1011
- 0.039368 6 9 ack 40 ------- 0 1.354 9.84 0 1011
+ 0.042933 6 9 tcp 40 ------- 0 6.962 9.676 0 1304
- 0.042933 6 9 tcp 40 ------- 0 6.962 9.676 0 1304
r 0.044054 6 9 ack 40 ------- 0 1.354 9.84 0 1011
+ 0.045577 6 9 ack 40 ------- 0 25.277 10.1084 0 1186
- 0.045577 6 9 ack 40 ------- 0 25.277 10.1084 0 1186
r 0.04762 6 9 tcp 40 ------- 0 6.962 9.676 0 1304
r 0.050264 6 9 ack 40 ------- 0 25.277 10.1084 0 1186
+ 0.052306 6 9 tcp 1540 ------- 0 6.962 9.676 1 1546
- 0.052306 6 9 tcp 1540 ------- 0 6.962 9.676 1 1546
+ 0.052306 6 9 tcp 1540 ------- 0 6.962 9.676 2 1547
- 0.053538 6 9 tcp 1540 ------- 0 6.962 9.676 2 1547
+ 0.053717 6 9 ack 40 ------- 0 5.450 9.315 0 1315
+ 0.05375 6 9 ack 40 ------- 0 5.438 9.303 0 1316
- 0.05477 6 9 ack 40 ------- 0 5.450 9.315 0 1315
- 0.054802 6 9 ack 40 ------- 0 5.438 9.303 0 1316
+ 0.056621 6 9 tcp 40 ------- 0 6.1020 11.665 0 1657
- 0.056621 6 9 tcp 40 ------- 0 6.1020 11.665 0 1657
+ 0.05703 6 9 ack 40 ------- 0 25.227 9.1439 0 1453
- 0.05703 6 9 ack 40 ------- 0 25.227 9.1439 0 1453
r 0.058193 6 9 tcp 1540 ------- 0 6.962 9.676 1 1546
r 0.059425 6 9 tcp 1540 ------- 0 6.962 9.676 2 1547
r 0.059457 6 9 ack 40 ------- 0 5.450 9.315 0 1315
r 0.059489 6 9 ack 40 ------- 0 5.438 9.303 0 1316
r 0.061308 6 9 tcp 40 ------- 0 6.1020 11.665 0 1657
r 0.061717 6 9 ack 40 ------- 0 25.227 9.1439 0 1453
+ 0.06288 6 9 tcp 1540 ------- 0 6.962 9.676 3 1834
- 0.06288 6 9 tcp 1540 ------- 0 6.962 9.676 3 1834
+ 0.06288 6 9 tcp 1540 ------- 0 6.962 9.676 4 1835
- 0.064112 6 9 tcp 1540 ------- 0 6.962 9.676 4 1835
+ 0.064939 6 9 tcp 1540 ------- 0 6.962 9.676 5 1890
+ 0.064939 6 9 tcp 1540 ------- 0 6.962 9.676 6 1891
+ 0.065109 6 9 tcp 40 ------- 0 6.1015 11.660 0 1899
- 0.065344 6 9 tcp 1540 ------- 0 6.962 9.676 5 1890
- 0.066576 6 9 tcp 1540 ------- 0 6.962 9.676 6 1891
- 0.067808 6 9 tcp 40 ------- 0 6.1015 11.660 0 1899
+ 0.068278 6 9 ack 40 ------- 0 1.354 9.84 1 1748
- 0.068278 6 9 ack 40 ------- 0 1.354 9.84 1 1748
r 0.068766 6 9 tcp 1540 ------- 0 6.962 9.676 3 1834
+ 0.06951 6 9 ack 40 ------- 0 1.354 9.84 2 1780
- 0.06951 6 9 ack 40 ------- 0 1.354 9.84 2 1780
+ 0.069535 6 9 tcp 40 ------- 0 20.308 10.731 0 1523
- 0.069542 6 9 tcp 40 ------- 0 20.308 10.731 0 1523
r 0.069998 6 9 tcp 1540 ------- 0 6.962 9.676 4 1835
r 0.07123 6 9 tcp 1540 ------- 0 6.962 9.676 5 1890
+ 0.071576 6 9 tcp 40 ------- 0 6.1313 18.396 0 2105
- 0.071576 6 9 tcp 40 ------- 0 6.1313 18.396 0 2105
r 0.072462 6 9 tcp 1540 ------- 0 6.962 9.676 6 1891
r 0.072494 6 9 tcp 40 ------- 0 6.1015 11.660 0 1899
+ 0.07274 6 9 ack 40 ------- 0 25.260 10.1067 0 1913
- 0.07274 6 9 ack 40 ------- 0 25.260 10.1067 0 1913
r 0.072964 6 9 ack 40 ------- 0 1.354 9.84 1 1748
+ 0.073627 6 9 tcp 1540 ------- 0 6.962 9.676 7 2180
- 0.073627 6 9 tcp 1540 ------- 0 6.962 9.676 7 2180
+ 0.073627 6 9 tcp 1540 ------- 0 6.962 9.676 8 2181
r 0.074196 6 9 ack 40 ------- 0 1.354 9.84 2 1780
r 0.074228 6 9 tcp 40 ------- 0 20.308 10.731 0 1523
+ 0.074685 6 9 tcp 1540 ------- 0 6.962 9.676 9 2210
+ 0.074685 6 9 tcp 1540 ------- 0 6.962 9.676 10 2211
- 0.074859 6 9 tcp 1540 ------- 0 6.962 9.676 8 2181
+ 0.075917 6 9 tcp 1540 ------- 0 6.962 9.676 11 2247
+ 0.075917 6 9 tcp 1540 ------- 0 6.962 9.676 12 2248
- 0.076091 6 9 tcp 1540 ------- 0 6.962 9.676 9 2210
r 0.076263 6 9 tcp 40 ------- 0 6.1313 18.396 0 2105
+ 0.077149 6 9 tcp 1540 ------- 0 6.962 9.676 13 2283
+ 0.077149 6 9 tcp 1540 ------- 0 6.962 9.676 14 2284
- 0.077323 6 9 tcp 1540 ------- 0 6.962 9.676 10 2211
r 0.077427 6 9 ack 40 ------- 0 25.260 10.1067 0 1913
+ 0.0775 6 9 ack 40 ------- 0 21.694 9.1300 0 1567
- 0.078555 6 9 tcp 1540 ------- 0 6.962 9.676 11 2247
+ 0.079149 6 9 ack 40 ------- 0 1.357 9.87 0 2061
r 0.079514 6 9 tcp 1540 ------- 0 6.962 9.676 7 2180
- 0.079787 6 9 tcp 1540 ------- 0 6.962 9.676 12 2248
+ 0.080349 6 9 ack 40 ------- 0 25.277 10.1084 1 2161
r 0.080746 6 9 tcp 1540 ------- 0 6.962 9.676 8 2181
- 0.081019 6 9 tcp 1540 ------- 0 6.962 9.676 13 2283
r 0.081978 6 9 tcp 1540 ------- 0 6.962 9.676 9 2210
- 0.082251 6 9 tcp 1540 ------- 0 6.962 9.676 14 2284
r 0.08321 6 9 tcp 1540 ------- 0 6.962 9.676 10 2211
- 0.083483 6 9 ack 40 ------- 0 21.694 9.1300 0 1567
- 0.083515 6 9 ack 40 ------- 0 1.357 9.87 0 2061
- 0.083547 6 9 ack 40 ------- 0 25.277 10.1084 1 2161
+ 0.0842 6 9 tcp 1540 ------- 0 6.962 9.676 15 2528
- 0.0842 6 9 tcp 1540 ------- 0 6.962 9.676 15 2528
+ 0.0842 6 9 tcp 1540 ------- 0 6.962 9.676 16 2529
r 0.084442 6 9 tcp 1540 ------- 0 6.962 9.676 11 2247
+ 0.085432 6 9 tcp 1540 ------- 0 6.962 9.676 17 2571
+ 0.085432 6 9 tcp 1540 ------- 0 6.962 9.676 18 2572
- 0.085432 6 9 tcp 1540 ------- 0 6.962 9.676 16 2529
r 0.085674 6 9 tcp 1540 ------- 0 6.962 9.676 12 2248
+ 0.086664 6 9 tcp 1540 ------- 0 6.962 9.676 19 2616
+ 0.086664 6 9 tcp 1540 ------- 0 6.962 9.676 20 2617
- 0.086664 6 9 tcp 1540 ------- 0 6.962 9.676 17 2571
r 0.086906 6 9 tcp 1540 ------- 0 6.962 9.676 13 2283
+ 0.087896 6 9 tcp 1540 ------- 0 6.962 9.676 21 2655
+ 0.087896 6 9 tcp 1540 ------- 0 6.962 9.676 22 2656
- 0.087896 6 9 tcp 1540 ------- 0 6.962 9.676 18 2572
r 0.088138 6 9 tcp 1540 ------- 0 6.962 9.676 14 2284
r 0.08817 6 9 ack 40 ------- 0 21.694 9.1300 0 1567
r 0.088202 6 9 ack 40 ------- 0 1.357 9.87 0 2061
r 0.088234 6 9 ack 40 ------- 0 25.277 10.1084 1 2161
+ 0.089128 6 9 tcp 1540 ------- 0 6.962 9.676 23 2699
+ 0.089128 6 9 tcp 1540 ------- 0 6.962 9.676 24 2700
- 0.089128 6 9 tcp 1540 ------- 0 6.962 9.676 19 2616
r 0.090087 6 9 tcp 1540 ------- 0 6.962 9.676 15 2528
+ 0.09036 6 9 tcp 1540 ------- 0 6.962 9.676 25 2748
+ 0.09036 6 9 tcp 1540 ------- 0 6.962 9.676 26 2749
- 0.09036 6 9 tcp 1540 ------- 0 6.962 9.676 20 2617
r 0.091319 6 9 tcp 1540 ------- 0 6.962 9.676 16 2529
+ 0.091518 6 9 ack 40 ------- 0 5.450 9.315 1 2439
+ 0.091592 6 9 tcp 1540 ------- 0 6.962 9.676 27 2782
+ 0.091592 6 9 tcp 1540 ------- 0 6.962 9.676 28 2783
- 0.091592 6 9 tcp 1540 ------- 0 6.962 9.676 21 2655
r 0.092551 6 9 tcp 1540 ------- 0 6.962 9.676 17 2571
+ 0.092824 6 9 tcp 1540 ------- 0 6.962 9.676 29 2814
+ 0.092824 6 9 tcp 1540 ------- 0 6.962 9.676 30 2815
d 0.092824 6 9 tcp 1540 ------- 0 6.962 9.676 30 2815
- 0.092824 6 9 tcp 1540 ------- 0 6.962 9.676 22 2656
r 0.093783 6 9 tcp 1540 ------- 0 6.962 9.676 18 2572
- 0.094056 6 9 tcp 1540 ------- 0 6.962 9.676 23 2699
r 0.095015 6 9 tcp 1540 ------- 0 6.962 9.676 19 2616
- 0.095288 6 9 tcp 1540 ------- 0 6.962 9.676 24 2700
r 0.096247 6 9 tcp 1540 ------- 0 6.962 9.676 20 2617
- 0.09652 6 9 tcp 1540 ------- 0 6.962 9.676 25 2748
+ 0.097188 6 9 ack 40 ------- 0 1.354 9.84 3 2685
r 0.097479 6 9 tcp 1540 ------- 0 6.962 9.676 21 2655
+ 0.09771 6 9 ack 40 ------- 0 5.450 9.315 2 2559
- 0.097752 6 9 tcp 1540 ------- 0 6.962 9.676 26 2749
+ 0.097784 6 9 tcp 1540 ------- 0 6.962 9.676 31 2969
+ 0.097784 6 9 tcp 1540 ------- 0 6.962 9.676 32 2970
+ 0.097848 6 9 tcp 1540 ------- 0 6.962 9.676 33 2975
+ 0.097848 6 9 tcp 1540 ------- 0 6.962 9.676 34 2976
d 0.097848 6 9 tcp 1540 ------- 0 6.962 9.676 34 2976
+ 0.09788 6 9 tcp 1540 ------- 0 6.962 9.676 35 2977
d 0.09788 6 9 tcp 1540 ------- 0 6.962 9.676 35 2977
+ 0.09788 6 9 tcp 1540 ------- 0 6.962 9.676 36 2978
d 0.09788 6 9 tcp 1540 ------- 0 6.962 9.676 36 2978
+ 0.09842 6 9 ack 40 ------- 0 1.354 9.84 4 2724
d 0.09842 6 9 ack 40 ------- 0 1.354 9.84 4 2724
+ 0.09847 6 9 tcp 1540 ------- 0 6.962 9.676 37 3000
d 0.09847 6 9 tcp 1540 ------- 0 6.962 9.676 37 3000
+ 0.09847 6 9 tcp 1540 ------- 0 6.962 9.676 38 3001
d 0.09847 6 9 tcp 1540 ------- 0 6.962 9.676 38 3001
r 0.098711 6 9 tcp 1540 ------- 0 6.962 9.676 22 2656
+ 0.098893 6 9 ack 40 ------- 0 25.227 9.1439 1 2789
d 0.098893 6 9 ack 40 ------- 0 25.227 9.1439 1 2789
+ 0.098942 6 9 ack 40 ------- 0 5.438 9.303 1 2686
d 0.098942 6 9 ack 40 ------- 0 5.438 9.303 1 2686
- 0.098984 6 9 ack 40 ------- 0 5.450 9.315 1 2439
- 0.099016 6 9 tcp 1540 ------- 0 6.962 9.676 27 2782
+ 0.099652 6 9 ack 40 ------- 0 1.354 9.84 5 2770
+ 0.099702 6 9 tcp 1540 ------- 0 6.962 9.676 39 3031
r 0.099943 6 9 tcp 1540 ------- 0 6.962 9.676 23 2699
- 0.100248 6 9 tcp 1540 ------- 0 6.962 9.676 28 2783
+ 0.100884 6 9 ack 40 ------- 0 1.354 9.84 6 2800
+ 0.100934 6 9 tcp 1540 ------- 0 6.962 9.676 40 3087
d 0.100934 6 9 tcp 1540 ------- 0 6.962 9.676 40 3087
r 0.101175 6 9 tcp 1540 ------- 0 6.962 9.676 24 2700
+ 0.101185 6 9 ack 40 ------- 0 6.525 10.204 0 3090
d 0.101185 6 9 ack 40 ------- 0 6.525 10.204 0 3090
- 0.10148 6 9 tcp 1540 ------- 0 6.962 9.676 29 2814
+ 0.101569 6 9 tcp 1540 ------- 0 6.1020 11.665 1 3104
+ 0.101569 6 9 tcp 1540 ------- 0 6.1020 11.665 2 3105
d 0.101569 6 9 tcp 1540 ------- 0 6.1020 11.665 2 3105
+ 0.102166 6 9 tcp 1540 ------- 0 6.962 9.676 41 3130
d 0.102166 6 9 tcp 1540 ------- 0 6.962 9.676 41 3130
r 0.102407 6 9 tcp 1540 ------- 0 6.962 9.676 25 2748
+ 0.102572 6 9 ack 40 ------- 0 6.494 9.345 0 3146
d 0.102572 6 9 ack 40 ------- 0 6.494 9.345 0 3146
+ 0.102621 6 9 ack 40 ------- 0 25.227 9.1439 2 2886
d 0.102621 6 9 ack 40 ------- 0 25.227 9.1439 2 2886
+ 0.10267 6 9 ack 40 ------- 0 5.438 9.303 2 2804
d 0.10267 6 9 ack 40 ------- 0 5.438 9.303 2 2804
- 0.102712 6 9 ack 40 ------- 0 1.354 9.84 3 2685
- 0.102744 6 9 ack 40 ------- 0 5.450 9.315 2 2559
- 0.102776 6 9 tcp 1540 ------- 0 6.962 9.676 31 2969
+ 0.103398 6 9 tcp 1540 ------- 0 6.962 9.676 42 3170
r 0.103639 6 9 tcp 1540 ------- 0 6.962 9.676 26 2749
r 0.103671 6 9 ack 40 ------- 0 5.450 9.315 1 2439
+ 0.103853 6 9 ack 40 ------- 0 25.277 10.1084 2 2925
+ 0.103885 6 9 ack 40 ------- 0 25.196 9.1408 0 2931
- 0.104008 6 9 tcp 1540 ------- 0 6.962 9.676 32 2970
+ 0.10463 6 9 tcp 1540 ------- 0 6.962 9.676 43 3224
r 0.104903 6 9 tcp 1540 ------- 0 6.962 9.676 27 2782
- 0.10524 6 9 tcp 1540 ------- 0 6.962 9.676 33 2975
+ 0.105862 6 9 tcp 1540 ------- 0 6.962 9.676 44 3263
r 0.106135 6 9 tcp 1540 ------- 0 6.962 9.676 28 2783
- 0.106472 6 9 ack 40 ------- 0 1.354 9.84 5 2770
- 0.106504 6 9 tcp 1540 ------- 0 6.962 9.676 39 3031
r 0.107367 6 9 tcp 1540 ------- 0 6.962 9.676 29 2814
r 0.107399 6 9 ack 40 ------- 0 1.354 9.84 3 2685
r 0.107431 6 9 ack 40 ------- 0 5.450 9.315 2 2559
+ 0.107729 6 9 tcp 1540 ------- 0 6.962 9.676 45 3310
- 0.107736 6 9 ack 40 ------- 0 1.354 9.84 6 2800
- 0.107768 6 9 tcp 1540 ------- 0 6.1020 11.665 1 3104
+ 0.108326 6 9 tcp 1540 ------- 0 6.962 9.676 46 3329
r 0.108663 6 9 tcp 1540 ------- 0 6.962 9.676 31 2969
+ 0.108962 6 9 tcp 40 ------- 0 24.205 9.1003 0 1937
- 0.109 6 9 tcp 1540 ------- 0 6.962 9.676 42 3170
r 0.109895 6 9 tcp 1540 ------- 0 6.962 9.676 32 2970
- 0.110232 6 9 ack 40 ------- 0 25.277 10.1084 2 2925
- 0.110264 6 9 ack 40 ------- 0 25.196 9.1408 0 2931
- 0.110296 6 9 tcp 1540 ------- 0 6.962 9.676 43 3224
+ 0.110822 6 9 tcp 1540 ------- 0 6.962 9.676 47 3406
+ 0.110854 6 9 tcp 1540 ------- 0 6.962 9.676 48 3408
r 0.111127 6 9 tcp 1540 ------- 0 6.962 9.676 33 2975
r 0.111159 6 9 ack 40 ------- 0 1.354 9.84 5 2770
+ 0.111515 6 9 tcp 40 ------- 0 5.1123 9.639 0 3069
- 0.111528 6 9 tcp 1540 ------- 0 6.962 9.676 44 3263
r 0.112391 6 9 tcp 1540 ------- 0 6.962 9.676 39 3031
r 0.112423 6 9 ack 40 ------- 0 1.354 9.84 6 2800
+ 0.112657 6 9 tcp 1540 ------- 0 6.962 9.676 49 3470
- 0.11276 6 9 tcp 1540 ------- 0 6.962 9.676 45 3310
r 0.113655 6 9 tcp 1540 ------- 0 6.1020 11.665 1 3104
- 0.113992 6 9 tcp 1540 ------- 0 6.962 9.676 46 3329
+ 0.114301 6 9 tcp 1540 ------- 0 21.277 9.959 1 2347
r 0.114887 6 9 tcp 1540 ------- 0 6.962 9.676 42 3170
r 0.114919 6 9 ack 40 ------- 0 25.277 10.1084 2 2925
r 0.114951 6 9 ack 40 ------- 0 25.196 9.1408 0 2931
+ 0.115182 6 9 ack 40 ------- 0 5.456 9.321 0 3229
- 0.115224 6 9 tcp 40 ------- 0 24.205 9.1003 0 1937
- 0.115256 6 9 tcp 1540 ------- 0 6.962 9.676 47 3406
r 0.116183 6 9 tcp 1540 ------- 0 6.962 9.676 43 3224
- 0.116488 6 9 tcp 1540 ------- 0 6.962 9.676 48 3408
r 0.117415 6 9 tcp 1540 ------- 0 6.962 9.676 44 3263
+ 0.117681 6 9 tcp 1540 ---A--- 0 6.962 9.676 30 3599
- 0.11772 6 9 tcp 40 ------- 0 5.1123 9.639 0 3069
- 0.117752 6 9 tcp 1540 ------- 0 6.962 9.676 49 3470
r 0.118647 6 9 tcp 1540 ------- 0 6.962 9.676 45 3310
- 0.118984 6 9 tcp 1540 ------- 0 21.277 9.959 1 2347
+ 0.119293 6 9 ack 40 ------- 0 1.357 9.87 1 3305
r 0.119879 6 9 tcp 1540 ------- 0 6.962 9.676 46 3329
r 0.119911 6 9 tcp 40 ------- 0 24.205 9.1003 0 1937
- 0.120216 6 9 ack 40 ------- 0 5.456 9.321 0 3229
- 0.120248 6 9 tcp 1540 ---A--- 0 6.962 9.676 30 3599
+ 0.120525 6 9 tcp 1540 ------- 0 21.277 9.959 2 2348
+ 0.120557 6 9 ack 40 ------- 0 1.357 9.87 2 3344
r 0.121143 6 9 tcp 1540 ------- 0 6.962 9.676 47 3406
- 0.12148 6 9 ack 40 ------- 0 1.357 9.87 1 3305
- 0.121512 6 9 tcp 1540 ------- 0 21.277 9.959 2 2348
r 0.122375 6 9 tcp 1540 ------- 0 6.962 9.676 48 3408
r 0.122407 6 9 tcp 40 ------- 0 5.1123 9.639 0 3069
- 0.122744 6 9 ack 40 ------- 0 1.357 9.87 2 3344
+ 0.12318 6 9 tcp 1540 ------- 0 21.261 9.943 1 2353
- 0.12318 6 9 tcp 1540 ------- 0 21.261 9.943 1 2353
r 0.123639 6 9 tcp 1540 ------- 0 6.962 9.676 49 3470
r 0.124871 6 9 tcp 1540 ------- 0 21.277 9.959 1 2347
r 0.124903 6 9 ack 40 ------- 0 5.456 9.321 0 3229
r 0.126135 6 9 tcp 1540 ---A--- 0 6.962 9.676 30 3599
r 0.126167 6 9 ack 40 ------- 0 1.357 9.87 1 3305
r 0.127399 6 9 tcp 1540 ------- 0 21.277 9.959 2 2348
r 0.127431 6 9 ack 40 ------- 0 1.357 9.87 2 3344
+ 0.128108 6 9 tcp 1540 ------- 0 21.261 9.943 2 2354
- 0.128108 6 9 tcp 1540 ------- 0 21.261 9.943 2 2354
r 0.129067 6 9 tcp 1540 ------- 0 21.261 9.943 1 2353
+ 0.130167 6 9 tcp 40 ------- 0 20.275 9.928 0 2628
- 0.130167 6 9 tcp 40 ------- 0 20.275 9.928 0 2628
+ 0.132054 6 9 tcp 1540 ------- 0 6.962 9.676 34 4073
- 0.132054 6 9 tcp 1540 ------- 0 6.962 9.676 34 4073
+ 0.132054 6 9 tcp 1540 ------- 0 6.962 9.676 35 4074
+ 0.132226 6 9 ack 40 ------- 0 1.354 9.84 7 3790
- 0.133286 6 9 tcp 1540 ------- 0 6.962 9.676 35 4074
+ 0.133458 6 9 ack 40 ------- 0 1.354 9.84 8 3840
r 0.133995 6 9 tcp 1540 ------- 0 21.261 9.943 2 2354
- 0.134518 6 9 ack 40 ------- 0 1.354 9.84 7 3790
+ 0.13455 6 9 tcp 1540 ------- 0 6.1015 11.660 1 4145
+ 0.13455 6 9 tcp 1540 ------- 0 6.1015 11.660 2 4146
- 0.13455 6 9 ack 40 ------- 0 1.354 9.84 8 3840
- 0.134582 6 9 tcp 1540 ------- 0 6.1015 11.660 1 4145
r 0.134854 6 9 tcp 40 ------- 0 20.275 9.928 0 2628
- 0.135814 6 9 tcp 1540 ------- 0 6.1015 11.660 2 4146
r 0.137941 6 9 tcp 1540 ------- 0 6.962 9.676 34 4073
r 0.139173 6 9 tcp 1540 ------- 0 6.962 9.676 35 4074
r 0.139205 6 9 ack 40 ------- 0 1.354 9.84 7 3790
r 0.139237 6 9 ack 40 ------- 0 1.354 9.84 8 3840
+ 0.139982 6 9 ack 40 ------- 0 5.437 9.302 0 3934
- 0.139982 6 9 ack 40 ------- 0 5.437 9.302 0 3934
r 0.140469 6 9 tcp 1540 ------- 0 6.1015 11.660 1 4145
r 0.141701 6 9 tcp 1540 ------- 0 6.1015 11.660 2 4146
+ 0.142114 6 9 ack 40 ------- 0 1.354 9.84 9 3974
- 0.142114 6 9 ack 40 ------- 0 1.354 9.84 9 3974
+ 0.142493 6 9 ack 40 ------- 0 25.277 10.1084 3 4180
- 0.142493 6 9 ack 40 ------- 0 25.277 10.1084 3 4180
+ 0.142929 6 9 tcp 1540 ------- 0 6.962 9.676 36 4407
- 0.142929 6 9 tcp 1540 ------- 0 6.962 9.676 36 4407
+ 0.142929 6 9 tcp 1540 ------- 0 6.962 9.676 37 4408
+ 0.143792 6 9 tcp 40 ------- 0 6.1014 11.659 0 4437
+ 0.143859 6 9 tcp 1540 ------- 0 6.962 9.676 38 4439
+ 0.143859 6 9 tcp 1540 ------- 0 6.962 9.676 39 4440
- 0.144161 6 9 tcp 1540 ------- 0 6.962 9.676 37 4408
r 0.144669 6 9 ack 40 ------- 0 5.437 9.302 0 3934
- 0.145393 6 9 tcp 40 ------- 0 6.1014 11.659 0 4437
- 0.145425 6 9 tcp 1540 ------- 0 6.962 9.676 38 4439
- 0.146657 6 9 tcp 1540 ------- 0 6.962 9.676 39 4440
r 0.1468 6 9 ack 40 ------- 0 1.354 9.84 9 3974
+ 0.147074 6 9 ack 40 ------- 0 1.354 9.84 10 4012
+ 0.147106 6 9 ack 40 ------- 0 1.354 9.84 11 4053
+ 0.147138 6 9 tcp 1540 ------- 0 6.1313 18.396 1 4571
+ 0.147138 6 9 tcp 1540 ------- 0 6.1313 18.396 2 4572
+ 0.14717 6 9 ack 40 ------- 0 1.354 9.84 12 4085
r 0.14718 6 9 ack 40 ------- 0 25.277 10.1084 3 4180
- 0.147889 6 9 ack 40 ------- 0 1.354 9.84 10 4012
- 0.147921 6 9 ack 40 ------- 0 1.354 9.84 11 4053
- 0.147953 6 9 tcp 1540 ------- 0 6.1313 18.396 1 4571
+ 0.148562 6 9 ack 40 ------- 0 1.354 9.84 13 4269
r 0.148816 6 9 tcp 1540 ------- 0 6.962 9.676 36 4407
- 0.149185 6 9 tcp 1540 ------- 0 6.1313 18.396 2 4572
r 0.150048 6 9 tcp 1540 ------- 0 6.962 9.676 37 4408
r 0.15008 6 9 tcp 40 ------- 0 6.1014 11.659 0 4437
- 0.150417 6 9 ack 40 ------- 0 1.354 9.84 12 4085
- 0.150449 6 9 ack 40 ------- 0 1.354 9.84 13 4269
r 0.151312 6 9 tcp 1540 ------- 0 6.962 9.676 38 4439
+ 0.151622 6 9 ack 40 ------- 0 1.357 9.87 3 4411
- 0.151622 6 9 ack 40 ------- 0 1.357 9.87 3 4411
r 0.152544 6 9 tcp 1540 ------- 0 6.962 9.676 39 4440
r 0.152576 6 9 ack 40 ------- 0 1.354 9.84 10 4012
r 0.152608 6 9 ack 40 ------- 0 1.354 9.84 11 4053
+ 0.15312 6 9 ack 40 ------- 0 1.357 9.87 4 4452
- 0.15312 6 9 ack 40 ------- 0 1.357 9.87 4 4452
r 0.15384 6 9 tcp 1540 ------- 0 6.1313 18.396 1 4571
+ 0.154316 6 9 tcp 1540 ------- 0 6.962 9.676 40 4803
- 0.154316 6 9 tcp 1540 ------- 0 6.962 9.676 40 4803
+ 0.154316 6 9 tcp 1540 ------- 0 6.962 9.676 41 4804
+ 0.154735 6 9 tcp 1540 ------- 0 6.962 9.676 42 4837
+ 0.154735 6 9 tcp 1540 ------- 0 6.962 9.676 43 4838
r 0.155072 6 9 tcp 1540 ------- 0 6.1313 18.396 2 4572
r 0.155104 6 9 ack 40 ------- 0 1.354 9.84 12 4085
r 0.155136 6 9 ack 40 ------- 0 1.354 9.84 13 4269
- 0.155548 6 9 tcp 1540 ------- 0 6.962 9.676 41 4804
+ 0.155616 6 9 ack 40 ------- 0 1.357 9.87 5 4501
+ 0.155999 6 9 tcp 1540 ------- 0 6.962 9.676 44 4876
+ 0.155999 6 9 tcp 1540 ------- 0 6.962 9.676 45 4877
+ 0.155999 6 9 tcp 1540 ------- 0 6.962 9.676 46 4878
+ 0.156173 6 9 ack 40 ------- 0 25.277 10.1084 4 4639
+ 0.156222 6 9 ack 40 ------- 0 5.450 9.315 3 4521
r 0.156309 6 9 ack 40 ------- 0 1.357 9.87 3 4411
+ 0.156481 6 9 rtProtoDV 26 ------- 0 6.1492 9.1472 -1 4891
- 0.15678 6 9 tcp 1540 ------- 0 6.962 9.676 42 4837
+ 0.157231 6 9 tcp 1540 ------- 0 6.962 9.676 47 4925
r 0.157807 6 9 ack 40 ------- 0 1.357 9.87 4 4452
- 0.158012 6 9 tcp 1540 ------- 0 6.962 9.676 43 4838
+ 0.158112 6 9 ack 40 ------- 0 1.357 9.87 6 4559
- 0.159244 6 9 ack 40 ------- 0 1.357 9.87 5 4501
- 0.159276 6 9 tcp 1540 ------- 0 6.962 9.676 44 4876
r 0.160202 6 9 tcp 1540 ------- 0 6.962 9.676 40 4803
- 0.160508 6 9 tcp 1540 ------- 0 6.962 9.676 45 4877
+ 0.16088 6 9 ack 40 ------- 0 5.450 9.315 4 4669
r 0.161434 6 9 tcp 1540 ------- 0 6.962 9.676 41 4804
- 0.16174 6 9 tcp 1540 ------- 0 6.962 9.676 46 4878
r 0.162666 6 9 tcp 1540 ------- 0 6.962 9.676 42 4837
- 0.162972 6 9 ack 40 ------- 0 25.277 10.1084 4 4639
- 0.163004 6 9 ack 40 ------- 0 5.450 9.315 3 4521
- 0.163036 6 9 rtProtoDV 26 ------- 0 6.1492 9.1472 -1 4891
- 0.163056 6 9 tcp 1540 ------- 0 6.962 9.676 47 4925
+ 0.163072 6 9 ack 40 ------- 0 1.291 9.21 0 4615
r 0.163898 6 9 tcp 1540 ------- 0 6.962 9.676 43 4838
r 0.16393 6 9 ack 40 ------- 0 1.357 9.87 5 4501
- 0.164288 6 9 ack 40 ------- 0 1.357 9.87 6 4559
- 0.16432 6 9 ack 40 ------- 0 5.450 9.315 4 4669
- 0.164352 6 9 ack 40 ------- 0 1.291 9.21 0 4615
r 0.165162 6 9 tcp 1540 ------- 0 6.962 9.676 44 4876
r 0.166394 6 9 tcp 1540 ------- 0 6.962 9.676 45 4877
+ 0.1668 6 9 ack 40 ------- 0 1.359 9.89 0 4675
- 0.1668 6 9 ack 40 ------- 0 1.359 9.89 0 4675
r 0.167626 6 9 tcp 1540 ------- 0 6.962 9.676 46 4878
r 0.167658 6 9 ack 40 ------- 0 25.277 10.1084 4 4639
r 0.16769 6 9 ack 40 ------- 0 5.450 9.315 3 4521
r 0.167711 6 9 rtProtoDV 26 ------- 0 6.1492 9.1472 -1 4891
r 0.168943 6 9 tcp 1540 ------- 0 6.962 9.676 47 4925
r 0.168975 6 9 ack 40 ------- 0 1.357 9.87 6 4559
r 0.169007 6 9 ack 40 ------- 0 5.450 9.315 4 4669
r 0.169039 6 9 ack 40 ------- 0 1.291 9.21 0 4615
+ 0.169838 6 9 ack 40 ------- 0 5.450 9.315 5 4993
- 0.169838 6 9 ack 40 ------- 0 5.450 9.315 5 4993
+ 0.170528 6 9 ack 40 ------- 0 1.354 9.84 14 4842
- 0.170528 6 9 ack 40 ------- 0 1.354 9.84 14 4842
+ 0.17056 6 9 ack 40 ------- 0 1.354 9.84 15 4881
- 0.17056 6 9 ack 40 ------- 0 1.354 9.84 15 4881
+ 0.17107 6 9 ack 40 ------- 0 5.450 9.315 6 5045
- 0.17107 6 9 ack 40 ------- 0 5.450 9.315 6 5045
r 0.171487 6 9 ack 40 ------- 0 1.359 9.89 0 4675
+ 0.171888 6 9 ack 40 ------- 0 24.723 9.1359 0 3897
- 0.171888 6 9 ack 40 ------- 0 24.723 9.1359 0 3897
+ 0.172079 6 9 tcp 1540 ------- 0 6.962 9.676 48 5532
- 0.172079 6 9 tcp 1540 ------- 0 6.962 9.676 48 5532
+ 0.172143 6 9 tcp 1540 ------- 0 6.962 9.676 50 5542
+ 0.172143 6 9 tcp 1540 ------- 0 6.962 9.676 51 5543
+ 0.172143 6 9 tcp 1540 ------- 0 6.962 9.676 52 5544
+ 0.172143 6 9 tcp 1540 ------- 0 6.962 9.676 53 5545
+ 0.172143 6 9 tcp 1540 ------- 0 6.962 9.676 54 5546
+ 0.172143 6 9 tcp 1540 ------- 0 6.962 9.676 55 5547
+ 0.172143 6 9 tcp 1540 ------- 0 6.962 9.676 56 5548
+ 0.172143 6 9 tcp 1540 ------- 0 6.962 9.676 57 5549
+ 0.172143 6 9 tcp 1540 ------- 0 6.962 9.676 58 5550
+ 0.172175 6 9 tcp 1540 ------- 0 6.962 9.676 59 5553
d 0.172175 6 9 tcp 1540 ------- 0 6.962 9.676 59 5553
+ 0.172207 6 9 tcp 1540 ------- 0 6.962 9.676 60 5555
d 0.172207 6 9 tcp 1540 ------- 0 6.962 9.676 60 5555
- 0.173311 6 9 tcp 1540 ------- 0 6.962 9.676 50 5542
+ 0.173613 6 9 ack 40 ------- 0 25.196 9.1408 1 5283
r 0.174525 6 9 ack 40 ------- 0 5.450 9.315 5 4993
- 0.174543 6 9 tcp 1540 ------- 0 6.962 9.676 51 5543
r 0.175215 6 9 ack 40 ------- 0 1.354 9.84 14 4842
r 0.175247 6 9 ack 40 ------- 0 1.354 9.84 15 4881
+ 0.175748 6 9 ack 40 ------- 0 1.354 9.84 16 5307
r 0.175757 6 9 ack 40 ------- 0 5.450 9.315 6 5045
- 0.175775 6 9 tcp 1540 ------- 0 6.962 9.676 52 5544
r 0.176575 6 9 ack 40 ------- 0 24.723 9.1359 0 3897
+ 0.176647 6 9 ack 40 ------- 0 25.196 9.1408 2 5363
- 0.177007 6 9 tcp 1540 ------- 0 6.962 9.676 53 5545
+ 0.177012 6 9 ack 40 ------- 0 1.354 9.84 17 5348
+ 0.177108 6 9 ack 40 ------- 0 1.365 9.95 0 5352
d 0.177108 6 9 ack 40 ------- 0 1.365 9.95 0 5352
r 0.177965 6 9 tcp 1540 ------- 0 6.962 9.676 48 5532
- 0.178239 6 9 tcp 1540 ------- 0 6.962 9.676 54 5546
+ 0.17834 6 9 ack 40 ------- 0 1.354 9.84 18 5401
r 0.179197 6 9 tcp 1540 ------- 0 6.962 9.676 50 5542
- 0.179471 6 9 tcp 1540 ------- 0 6.962 9.676 55 5547
+ 0.179604 6 9 ack 40 ------- 0 1.354 9.84 19 5467
r 0.180429 6 9 tcp 1540 ------- 0 6.962 9.676 51 5543
- 0.180703 6 9 tcp 1540 ------- 0 6.962 9.676 56 5548
r 0.181661 6 9 tcp 1540 ------- 0 6.962 9.676 52 5544
- 0.181935 6 9 tcp 1540 ------- 0 6.962 9.676 57 5549
r 0.182893 6 9 tcp 1540 ------- 0 6.962 9.676 53 5545
- 0.183167 6 9 tcp 1540 ------- 0 6.962 9.676 58 5550
r 0.184125 6 9 tcp 1540 ------- 0 6.962 9.676 54 5546
- 0.184399 6 9 ack 40 ------- 0 25.196 9.1408 1 5283
- 0.184431 6 9 ack 40 ------- 0 1.354 9.84 16 5307
- 0.184463 6 9 ack 40 ------- 0 25.196 9.1408 2 5363
- 0.184495 6 9 ack 40 ------- 0 1.354 9.84 17 5348
- 0.184527 6 9 ack 40 ------- 0 1.354 9.84 18 5401
- 0.184559 6 9 ack 40 ------- 0 1.354 9.84 19 5467
+ 0.184782 6 9 tcp 1540 ------- 0 5.1123 9.639 1 5539
- 0.184782 6 9 tcp 1540 ------- 0 5.1123 9.639 1 5539
r 0.185357 6 9 tcp 1540 ------- 0 6.962 9.676 55 5547
+ 0.186014 6 9 tcp 1540 ------- 0 5.1123 9.639 2 5540
- 0.186014 6 9 tcp 1540 ------- 0 5.1123 9.639 2 5540
r 0.186589 6 9 tcp 1540 ------- 0 6.962 9.676 56 5548
r 0.187821 6 9 tcp 1540 ------- 0 6.962 9.676 57 5549
r 0.189053 6 9 tcp 1540 ------- 0 6.962 9.676 58 5550
r 0.189085 6 9 ack 40 ------- 0 25.196 9.1408 1 5283
r 0.189117 6 9 ack 40 ------- 0 1.354 9.84 16 5307
r 0.189149 6 9 ack 40 ------- 0 25.196 9.1408 2 5363
r 0.189181 6 9 ack 40 ------- 0 1.354 9.84 17 5348
r 0.189213 6 9 ack 40 ------- 0 1.354 9.84 18 5401
r 0.189245 6 9 ack 40 ------- 0 1.354 9.84 19 5467
+ 0.189492 6 9 ack 40 ------- 0 1.354 9.84 20 5565
- 0.189492 6 9 ack 40 ------- 0 1.354 9.84 20 5565
r 0.190669 6 9 tcp 1540 ------- 0 5.1123 9.639 1 5539
+ 0.190756 6 9 ack 40 ------- 0 1.354 9.84 21 5606
- 0.190756 6 9 ack 40 ------- 0 1.354 9.84 21 5606
+ 0.19082 6 9 ack 40 ------- 0 1.354 9.84 22 5653
- 0.19082 6 9 ack 40 ------- 0 1.354 9.84 22 5653
+ 0.190852 6 9 ack 40 ------- 0 1.354 9.84 23 5700
- 0.190852 6 9 ack 40 ------- 0 1.354 9.84 23 5700
+ 0.190884 6 9 ack 40 ------- 0 1.354 9.84 24 5747
- 0.190884 6 9 ack 40 ------- 0 1.354 9.84 24 5747
+ 0.190916 6 9 ack 40 ------- 0 21.694 9.1300 1 4037
- 0.190916 6 9 ack 40 ------- 0 21.694 9.1300 1 4037
+ 0.190948 6 9 ack 40 ------- 0 1.354 9.84 26 5818
- 0.190948 6 9 ack 40 ------- 0 1.354 9.84 26 5818
+ 0.19098 6 9 ack 40 ------- 0 1.354 9.84 27 5851
- 0.19098 6 9 ack 40 ------- 0 1.354 9.84 27 5851
r 0.191901 6 9 tcp 1540 ------- 0 5.1123 9.639 2 5540
+ 0.192238 6 9 ack 40 ------- 0 5.456 9.321 1 5876
- 0.192238 6 9 ack 40 ------- 0 5.456 9.321 1 5876
+ 0.192244 6 9 ack 40 ------- 0 1.357 9.87 7 5894
- 0.19227 6 9 ack 40 ------- 0 1.357 9.87 7 5894
r 0.194178 6 9 ack 40 ------- 0 1.354 9.84 20 5565
+ 0.19474 6 9 ack 40 ------- 0 1.357 9.87 8 5929
- 0.19474 6 9 ack 40 ------- 0 1.357 9.87 8 5929
r 0.195442 6 9 ack 40 ------- 0 1.354 9.84 21 5606
r 0.195506 6 9 ack 40 ------- 0 1.354 9.84 22 5653
r 0.195538 6 9 ack 40 ------- 0 1.354 9.84 23 5700
r 0.19557 6 9 ack 40 ------- 0 1.354 9.84 24 5747
r 0.195602 6 9 ack 40 ------- 0 21.694 9.1300 1 4037
r 0.195634 6 9 ack 40 ------- 0 1.354 9.84 26 5818
r 0.195666 6 9 ack 40 ------- 0 1.354 9.84 27 5851
+ 0.196004 6 9 tcp 40 ------- 0 1.1244 9.463 0 5958
- 0.196004 6 9 tcp 40 ------- 0 1.1244 9.463 0 5958
+ 0.196391 6 9 ack 40 ------- 0 25.277 10.1084 5 6090
- 0.196391 6 9 ack 40 ------- 0 25.277 10.1084 5 6090
r 0.196925 6 9 ack 40 ------- 0 5.456 9.321 1 5876
r 0.196957 6 9 ack 40 ------- 0 1.357 9.87 7 5894
+ 0.197341 6 9 ack 40 ------- 0 25.277 10.1084 6 6150
- 0.197341 6 9 ack 40 ------- 0 25.277 10.1084 6 6150
+ 0.197373 6 9 ack 40 ------- 0 25.265 10.1072 0 6151
- 0.197373 6 9 ack 40 ------- 0 25.265 10.1072 0 6151
+ 0.198596 6 9 ack 40 ------- 0 1.357 9.87 9 6048
- 0.198596 6 9 ack 40 ------- 0 1.357 9.87 9 6048
r 0.199426 6 9 ack 40 ------- 0 1.357 9.87 8 5929
+ 0.20056 6 9 ack 40 ------- 0 5.456 9.321 2 6001
- 0.20056 6 9 ack 40 ------- 0 5.456 9.321 2 6001
r 0.20069 6 9 tcp 40 ------- 0 1.1244 9.463 0 5958
r 0.201078 6 9 ack 40 ------- 0 25.277 10.1084 5 6090
+ 0.201999 6 9 tcp 1540 ------- 0 6.962 9.676 61 6584
- 0.201999 6 9 tcp 1540 ------- 0 6.962 9.676 61 6584
r 0.202028 6 9 ack 40 ------- 0 25.277 10.1084 6 6150
+ 0.202031 6 9 tcp 1540 ------- 0 6.962 9.676 62 6586
r 0.20206 6 9 ack 40 ------- 0 25.265 10.1072 0 6151
+ 0.202063 6 9 tcp 1540 ------- 0 6.962 9.676 63 6589
+ 0.202127 6 9 tcp 1540 ------- 0 6.1020 11.665 3 6590
+ 0.202127 6 9 tcp 1540 ------- 0 6.1020 11.665 4 6591
+ 0.202159 6 9 tcp 1540 ------- 0 6.962 9.676 64 6592
+ 0.202191 6 9 tcp 1540 ------- 0 6.962 9.676 65 6595
+ 0.202223 6 9 tcp 1540 ------- 0 6.962 9.676 66 6597
+ 0.202287 6 9 tcp 1540 ------- 0 6.962 9.676 67 6600
+ 0.202319 6 9 tcp 1540 ------- 0 6.962 9.676 68 6604
- 0.203231 6 9 tcp 1540 ------- 0 6.962 9.676 62 6586
r 0.203282 6 9 ack 40 ------- 0 1.357 9.87 9 6048
- 0.204463 6 9 tcp 1540 ------- 0 6.962 9.676 63 6589
+ 0.205105 6 9 tcp 40 ------- 0 24.193 9.991 0 5136
r 0.205246 6 9 ack 40 ------- 0 5.456 9.321 2 6001
- 0.205695 6 9 tcp 1540 ------- 0 6.1020 11.665 3 6590
- 0.206927 6 9 tcp 1540 ------- 0 6.1020 11.665 4 6591
+ 0.207305 6 9 ack 40 ------- 0 1.357 9.87 10 6476
r 0.207885 6 9 tcp 1540 ------- 0 6.962 9.676 61 6584
+ 0.207977 6 9 tcp 40 ------- 0 24.196 9.994 0 5264
- 0.208159 6 9 tcp 1540 ------- 0 6.962 9.676 64 6592
r 0.209117 6 9 tcp 1540 ------- 0 6.962 9.676 62 6586
- 0.209391 6 9 tcp 1540 ------- 0 6.962 9.676 65 6595
r 0.210349 6 9 tcp 1540 ------- 0 6.962 9.676 63 6589
- 0.210623 6 9 tcp 1540 ------- 0 6.962 9.676 66 6597
r 0.211581 6 9 tcp 1540 ------- 0 6.1020 11.665 3 6590
- 0.211855 6 9 tcp 1540 ------- 0 6.962 9.676 67 6600
r 0.212813 6 9 tcp 1540 ------- 0 6.1020 11.665 4 6591
- 0.213087 6 9 tcp 1540 ------- 0 6.962 9.676 68 6604
+ 0.213497 6 9 ack 40 ------- 0 1.357 9.87 11 6686
r 0.214045 6 9 tcp 1540 ------- 0 6.962 9.676 64 6592
- 0.214319 6 9 tcp 40 ------- 0 24.193 9.991 0 5136
- 0.214351 6 9 ack 40 ------- 0 1.357 9.87 10 6476
- 0.214383 6 9 tcp 40 ------- 0 24.196 9.994 0 5264
- 0.214415 6 9 ack 40 ------- 0 1.357 9.87 11 6686
r 0.215277 6 9 tcp 1540 ------- 0 6.962 9.676 65 6595
r 0.216509 6 9 tcp 1540 ------- 0 6.962 9.676 66 6597
+ 0.217225 6 9 ack 40 ------- 0 1.357 9.87 12 6819
- 0.217225 6 9 ack 40 ------- 0 1.357 9.87 12 6819
r 0.217741 6 9 tcp 1540 ------- 0 6.962 9.676 67 6600
r 0.218973 6 9 tcp 1540 ------- 0 6.962 9.676 68 6604
r 0.219005 6 9 tcp 40 ------- 0 24.193 9.991 0 5136
r 0.219037 6 9 ack 40 ------- 0 1.357 9.87 10 6476