+ 0.008421 12 13 rtProtoDV 26 ------- 0 12.1311 13.1541 -1 229
- 0.008421 12 13 rtProtoDV 26 ------- 0 12.1311 13.1541 -1 229
+ 0.008808 12 13 rtProtoDV 26 ------- 0 12.1311 13.1541 -1 237
- 0.008808 12 13 rtProtoDV 26 ------- 0 12.1311 13.1541 -1 237
r 0.010325 12 13 rtProtoDV 26 ------- 0 12.1311 13.1541 -1 229
+ 0.010463 12 13 rtProtoDV 26 ------- 0 12.1311 13.1541 -1 318
- 0.010463 12 13 rtProtoDV 26 ------- 0 12.1311 13.1541 -1 318
r 0.010712 12 13 rtProtoDV 26 ------- 0 12.1311 13.1541 -1 237
+ 0.011847 12 13 rtProtoDV 26 ------- 0 12.1311 13.1541 -1 416
- 0.011847 12 13 rtProtoDV 26 ------- 0 12.1311 13.1541 -1 416
+ 0.012216 12 13 rtProtoDV 26 ------- 0 12.1311 13.1541 -1 428
- 0.012216 12 13 rtProtoDV 26 ------- 0 12.1311 13.1541 -1 428
r 0.012366 12 13 rtProtoDV 26 ------- 0 12.1311 13.1541 -1 318
+ 0.012579 12 13 rtProtoDV 26 ------- 0 12.1311 13.1541 -1 449
- 0.012579 12 13 rtProtoDV 26 ------- 0 12.1311 13.1541 -1 449
+ 0.012966 12 13 rtProtoDV 26 ------- 0 12.1311 13.1541 -1 464
- 0.012966 12 13 rtProtoDV 26 ------- 0 12.1311 13.1541 -1 464
r 0.013751 12 13 rtProtoDV 26 ------- 0 12.1311 13.1541 -1 416
r 0.01412 12 13 rtProtoDV 26 ------- 0 12.1311 13.1541 -1 428
r 0.014483 12 13 rtProtoDV 26 ------- 0 12.1311 13.1541 -1 449
+ 0.01477 12 13 tcp 40 ------- 0 15.398 13.839 0 491
- 0.01477 12 13 tcp 40 ------- 0 15.398 13.839 0 491
r 0.01487 12 13 rtProtoDV 26 ------- 0 12.1311 13.1541 -1 464
r 0.016718 12 13 tcp 40 ------- 0 15.398 13.839 0 491
+ 0.021866 12 13 tcp 1540 ------- 0 15.398 13.839 1 727
- 0.021866 12 13 tcp 1540 ------- 0 15.398 13.839 1 727
+ 0.023098 12 13 tcp 1540 ------- 0 15.398 13.839 2 728
+ 0.024937 12 13 tcp 40 ------- 0 4.1055 13.611 0 706
- 0.026794 12 13 tcp 1540 ------- 0 15.398 13.839 2 728
r 0.028615 12 13 tcp 1540 ------- 0 15.398 13.839 1 727
- 0.031722 12 13 tcp 40 ------- 0 4.1055 13.611 0 706
r 0.033543 12 13 tcp 1540 ------- 0 15.398 13.839 2 728
r 0.033671 12 13 tcp 40 ------- 0 4.1055 13.611 0 706
+ 0.036079 12 13 tcp 1540 ------- 0 15.398 13.839 3 1020
- 0.036079 12 13 tcp 1540 ------- 0 15.398 13.839 3 1020
+ 0.037311 12 13 tcp 1540 ------- 0 15.398 13.839 4 1021
- 0.041007 12 13 tcp 1540 ------- 0 15.398 13.839 4 1021
r 0.042828 12 13 tcp 1540 ------- 0 15.398 13.839 3 1020
+ 0.043471 12 13 tcp 1540 ------- 0 15.398 13.839 5 1133
+ 0.044703 12 13 tcp 1540 ------- 0 15.398 13.839 6 1134
- 0.045935 12 13 tcp 1540 ------- 0 15.398 13.839 5 1133
+ 0.047263 12 13 tcp 40 ------- 0 4.1047 13.603 0 1093
r 0.047756 12 13 tcp 1540 ------- 0 15.398 13.839 4 1021
- 0.050863 12 13 tcp 1540 ------- 0 15.398 13.839 6 1134
+ 0.052223 12 13 tcp 40 ------- 0 0.1018 13.388 0 1099
r 0.052684 12 13 tcp 1540 ------- 0 15.398 13.839 5 1133
+ 0.053991 12 13 ack 40 ------- 0 18.631 13.1383 0 847
- 0.055791 12 13 tcp 40 ------- 0 4.1047 13.603 0 1093
- 0.055919 12 13 tcp 40 ------- 0 0.1018 13.388 0 1099
- 0.056047 12 13 ack 40 ------- 0 18.631 13.1383 0 847
r 0.057612 12 13 tcp 1540 ------- 0 15.398 13.839 6 1134
r 0.05774 12 13 tcp 40 ------- 0 4.1047 13.603 0 1093
r 0.057868 12 13 tcp 40 ------- 0 0.1018 13.388 0 1099
r 0.057996 12 13 ack 40 ------- 0 18.631 13.1383 0 847
+ 0.058511 12 13 tcp 1540 ------- 0 4.1055 13.611 1 1257
- 0.058511 12 13 tcp 1540 ------- 0 4.1055 13.611 1 1257
+ 0.062207 12 13 tcp 1540 ------- 0 15.398 13.839 7 1420
+ 0.063439 12 13 tcp 1540 ------- 0 15.398 13.839 8 1421
- 0.063439 12 13 tcp 1540 ------- 0 15.398 13.839 7 1420
+ 0.063897 12 13 tcp 40 ------- 0 12.910 13.786 0 1862
+ 0.064641 12 13 tcp 40 ------- 0 12.909 13.785 0 1883
+ 0.064671 12 13 tcp 1540 ------- 0 4.1055 13.611 2 1258
r 0.06526 12 13 tcp 1540 ------- 0 4.1055 13.611 1 1257
- 0.068367 12 13 tcp 1540 ------- 0 15.398 13.839 8 1421
r 0.070188 12 13 tcp 1540 ------- 0 15.398 13.839 7 1420
+ 0.072095 12 13 ack 40 ------- 0 17.953 13.1308 0 1178
+ 0.072127 12 13 tcp 40 ------- 0 0.1051 13.421 0 1243
- 0.073295 12 13 tcp 40 ------- 0 12.910 13.786 0 1862
- 0.073423 12 13 tcp 40 ------- 0 12.909 13.785 0 1883
- 0.073551 12 13 tcp 1540 ------- 0 4.1055 13.611 2 1258
+ 0.074623 12 13 ack 40 ------- 0 17.970 13.1325 0 1251
r 0.075116 12 13 tcp 1540 ------- 0 15.398 13.839 8 1421
r 0.075244 12 13 tcp 40 ------- 0 12.910 13.786 0 1862
r 0.075372 12 13 tcp 40 ------- 0 12.909 13.785 0 1883
+ 0.077193 12 13 tcp 1540 ------- 0 12.910 13.786 1 2288
+ 0.077193 12 13 tcp 1540 ------- 0 12.910 13.786 2 2289
+ 0.077321 12 13 tcp 1540 ------- 0 12.909 13.785 1 2294
+ 0.077321 12 13 tcp 1540 ------- 0 12.909 13.785 2 2295
- 0.078479 12 13 ack 40 ------- 0 17.953 13.1308 0 1178
- 0.078607 12 13 tcp 40 ------- 0 0.1051 13.421 0 1243
- 0.078735 12 13 ack 40 ------- 0 17.970 13.1325 0 1251
- 0.078863 12 13 tcp 1540 ------- 0 12.910 13.786 1 2288
+ 0.079583 12 13 ack 40 ------- 0 17.1015 13.1370 0 1283
r 0.0803 12 13 tcp 1540 ------- 0 4.1055 13.611 2 1258
r 0.080428 12 13 ack 40 ------- 0 17.953 13.1308 0 1178
r 0.080556 12 13 tcp 40 ------- 0 0.1051 13.421 0 1243
r 0.080684 12 13 ack 40 ------- 0 17.970 13.1325 0 1251
+ 0.082073 12 13 rtProtoDV 26 ------- 0 12.1311 13.1541 -1 2464
- 0.083791 12 13 tcp 1540 ------- 0 12.910 13.786 2 2289
r 0.085612 12 13 tcp 1540 ------- 0 12.910 13.786 1 2288
+ 0.087561 12 13 tcp 1540 ------- 0 12.910 13.786 3 2646
+ 0.087561 12 13 tcp 1540 ------- 0 12.910 13.786 4 2647
+ 0.088228 12 13 tcp 1540 ------- 0 15.398 13.839 9 1693
- 0.088719 12 13 tcp 1540 ------- 0 12.909 13.785 1 2294
+ 0.08946 12 13 tcp 1540 ------- 0 15.398 13.839 10 1694
+ 0.089492 12 13 tcp 40 ------- 0 0.994 13.364 0 1367
r 0.09054 12 13 tcp 1540 ------- 0 12.910 13.786 2 2289
+ 0.092489 12 13 tcp 1540 ------- 0 12.910 13.786 5 2806
+ 0.092489 12 13 tcp 1540 ------- 0 12.910 13.786 6 2807
d 0.092489 12 13 tcp 1540 ------- 0 12.910 13.786 6 2807
- 0.093647 12 13 tcp 1540 ------- 0 12.909 13.785 2 2295
r 0.095468 12 13 tcp 1540 ------- 0 12.909 13.785 1 2294
+ 0.097417 12 13 tcp 1540 ------- 0 12.909 13.785 3 2951
+ 0.097417 12 13 tcp 1540 ------- 0 12.909 13.785 4 2952
d 0.097417 12 13 tcp 1540 ------- 0 12.909 13.785 4 2952
+ 0.098244 12 13 tcp 1540 ------- 0 15.398 13.839 11 1994
d 0.098244 12 13 tcp 1540 ------- 0 15.398 13.839 11 1994
- 0.098575 12 13 ack 40 ------- 0 17.1015 13.1370 0 1283
- 0.098703 12 13 rtProtoDV 26 ------- 0 12.1311 13.1541 -1 2464
- 0.098787 12 13 tcp 1540 ------- 0 12.910 13.786 3 2646
+ 0.099476 12 13 tcp 1540 ------- 0 15.398 13.839 12 1995
r 0.100396 12 13 tcp 1540 ------- 0 12.909 13.785 2 2295
r 0.100524 12 13 ack 40 ------- 0 17.1015 13.1370 0 1283
r 0.100607 12 13 rtProtoDV 26 ------- 0 12.1311 13.1541 -1 2464
+ 0.100708 12 13 tcp 1540 ------- 0 15.398 13.839 13 1996
+ 0.102345 12 13 tcp 1540 ------- 0 12.909 13.785 5 3135
+ 0.102345 12 13 tcp 1540 ------- 0 12.909 13.785 6 3136
d 0.102345 12 13 tcp 1540 ------- 0 12.909 13.785 6 3136
- 0.103715 12 13 tcp 1540 ------- 0 12.910 13.786 4 2647
r 0.105535 12 13 tcp 1540 ------- 0 12.910 13.786 3 2646
+ 0.107484 12 13 tcp 1540 ------- 0 12.910 13.786 7 3301
+ 0.107484 12 13 tcp 1540 ------- 0 12.910 13.786 8 3302
d 0.107484 12 13 tcp 1540 ------- 0 12.910 13.786 8 3302
+ 0.108132 12 13 tcp 1540 ------- 0 15.398 13.839 14 2150
d 0.108132 12 13 tcp 1540 ------- 0 15.398 13.839 14 2150
- 0.108643 12 13 tcp 1540 ------- 0 15.398 13.839 9 1693
+ 0.108839 12 13 tcp 40 ------- 0 2.962 13.572 0 1887
+ 0.109364 12 13 tcp 1540 ------- 0 15.398 13.839 15 2151
d 0.109364 12 13 tcp 1540 ------- 0 15.398 13.839 15 2151
+ 0.109385 12 13 rtProtoDV 26 ------- 0 12.1311 13.1541 -1 3362
d 0.109385 12 13 rtProtoDV 26 ------- 0 12.1311 13.1541 -1 3362
+ 0.109417 12 13 tcp 40 ------- 0 0.1086 13.456 0 1800
d 0.109417 12 13 tcp 40 ------- 0 0.1086 13.456 0 1800
r 0.110463 12 13 tcp 1540 ------- 0 12.910 13.786 4 2647
+ 0.110681 12 13 tcp 40 ------- 0 15.417 13.858 0 2173
d 0.110681 12 13 tcp 40 ------- 0 15.417 13.858 0 2173
+ 0.110713 12 13 tcp 40 ------- 0 6.1077 13.673 0 1846
d 0.110713 12 13 tcp 40 ------- 0 6.1077 13.673 0 1846
+ 0.112412 12 13 tcp 1540 ------- 0 12.910 13.786 9 3459
d 0.112412 12 13 tcp 1540 ------- 0 12.910 13.786 9 3459
+ 0.112412 12 13 tcp 1540 ------- 0 12.910 13.786 10 3460
d 0.112412 12 13 tcp 1540 ------- 0 12.910 13.786 10 3460
- 0.113571 12 13 tcp 1540 ------- 0 15.398 13.839 10 1694
+ 0.113895 12 13 tcp 40 ------- 0 10.809 13.753 0 2779
r 0.115391 12 13 tcp 1540 ------- 0 15.398 13.839 9 1693
+ 0.117033 12 13 tcp 40 ------- 0 1.1381 13.477 0 1214
d 0.117033 12 13 tcp 40 ------- 0 1.1381 13.477 0 1214
- 0.118499 12 13 tcp 40 ------- 0 0.994 13.364 0 1367
- 0.118627 12 13 tcp 1540 ------- 0 12.910 13.786 5 2806
r 0.120319 12 13 tcp 1540 ------- 0 15.398 13.839 10 1694
r 0.120447 12 13 tcp 40 ------- 0 0.994 13.364 0 1367
+ 0.121961 12 13 tcp 1540 ------- 0 4.1047 13.603 1 2333
- 0.123555 12 13 tcp 1540 ------- 0 12.909 13.785 3 2951
+ 0.124425 12 13 tcp 1540 ------- 0 4.1047 13.603 2 2334
r 0.125375 12 13 tcp 1540 ------- 0 12.910 13.786 5 2806
+ 0.126889 12 13 tcp 1540 ------- 0 4.1055 13.611 3 2340
+ 0.127366 12 13 tcp 1540 ------- 0 12.910 13.786 11 3936
d 0.127366 12 13 tcp 1540 ------- 0 12.910 13.786 11 3936
+ 0.127366 12 13 tcp 1540 ------- 0 12.910 13.786 12 3937
d 0.127366 12 13 tcp 1540 ------- 0 12.910 13.786 12 3937
- 0.128483 12 13 tcp 1540 ------- 0 15.398 13.839 12 1995
+ 0.129353 12 13 tcp 1540 ------- 0 4.1055 13.611 4 2341
+ 0.129385 12 13 ack 40 ------- 0 17.999 13.1354 0 1820
d 0.129385 12 13 ack 40 ------- 0 17.999 13.1354 0 1820
r 0.130303 12 13 tcp 1540 ------- 0 12.909 13.785 3 2951
+ 0.130713 12 13 tcp 40 ------- 0 4.1060 13.616 0 2541
d 0.130713 12 13 tcp 40 ------- 0 4.1060 13.616 0 2541
+ 0.132422 12 13 tcp 1540 ------- 0 12.909 13.785 7 4082
d 0.132422 12 13 tcp 1540 ------- 0 12.909 13.785 7 4082
+ 0.132422 12 13 tcp 1540 ------- 0 12.909 13.785 8 4083
d 0.132422 12 13 tcp 1540 ------- 0 12.909 13.785 8 4083
- 0.133411 12 13 tcp 1540 ------- 0 15.398 13.839 13 1996
+ 0.134473 12 13 tcp 1540 ------- 0 15.398 13.839 16 2840
r 0.135231 12 13 tcp 1540 ------- 0 15.398 13.839 12 1995
+ 0.135705 12 13 tcp 1540 ------- 0 15.398 13.839 17 2841
d 0.135705 12 13 tcp 1540 ------- 0 15.398 13.839 17 2841
- 0.138339 12 13 tcp 1540 ------- 0 12.909 13.785 5 3135
+ 0.139433 12 13 tcp 40 ------- 0 6.1118 13.714 0 2119
r 0.140159 12 13 tcp 1540 ------- 0 15.398 13.839 13 1996
+ 0.141751 12 13 ack 40 ------- 0 9.714 13.209 0 3572
d 0.141751 12 13 ack 40 ------- 0 9.714 13.209 0 3572
+ 0.141879 12 13 ack 40 ------- 0 18.631 13.1383 1 3598
d 0.141879 12 13 ack 40 ------- 0 18.631 13.1383 1 3598
- 0.143267 12 13 tcp 1540 ------- 0 12.910 13.786 7 3301
r 0.145087 12 13 tcp 1540 ------- 0 12.909 13.785 5 3135
+ 0.147036 12 13 tcp 1540 ------- 0 12.909 13.785 9 4566
- 0.148195 12 13 tcp 40 ------- 0 2.962 13.572 0 1887
- 0.148323 12 13 tcp 40 ------- 0 10.809 13.753 0 2779
- 0.148451 12 13 tcp 1540 ------- 0 4.1047 13.603 1 2333
r 0.150015 12 13 tcp 1540 ------- 0 12.910 13.786 7 3301
r 0.150143 12 13 tcp 40 ------- 0 2.962 13.572 0 1887
r 0.150271 12 13 tcp 40 ------- 0 10.809 13.753 0 2779
+ 0.151817 12 13 tcp 40 ------- 0 15.401 13.842 0 3348
+ 0.151964 12 13 tcp 1540 ------- 0 12.910 13.786 13 4730
- 0.153379 12 13 tcp 1540 ------- 0 4.1047 13.603 2 2334
+ 0.154281 12 13 tcp 1540 ------- 0 0.1018 13.388 1 3133
+ 0.154313 12 13 tcp 40 ------- 0 4.1053 13.609 0 3332
r 0.155199 12 13 tcp 1540 ------- 0 4.1047 13.603 1 2333
+ 0.158009 12 13 tcp 1540 ------- 0 0.1018 13.388 2 3134
d 0.158009 12 13 tcp 1540 ------- 0 0.1018 13.388 2 3134
- 0.158307 12 13 tcp 1540 ------- 0 4.1055 13.611 3 2340
r 0.160127 12 13 tcp 1540 ------- 0 4.1047 13.603 2 2334
- 0.163235 12 13 tcp 1540 ------- 0 4.1055 13.611 4 2341
r 0.165055 12 13 tcp 1540 ------- 0 4.1055 13.611 3 2340
+ 0.166825 12 13 tcp 40 ------- 0 0.1073 13.443 0 3456
+ 0.166921 12 13 tcp 40 ------- 0 20.446 13.1060 0 2796
- 0.168163 12 13 tcp 1540 ------- 0 15.398 13.839 16 2840
+ 0.169449 12 13 tcp 40 ------- 0 1.1417 13.513 0 2326
r 0.169983 12 13 tcp 1540 ------- 0 4.1055 13.611 4 2341
+ 0.170713 12 13 tcp 40 ------- 0 15.425 13.866 0 4134
d 0.170713 12 13 tcp 40 ------- 0 15.425 13.866 0 4134
+ 0.172983 12 13 ack 40 ------- 0 9.716 13.211 0 4331
d 0.172983 12 13 ack 40 ------- 0 9.716 13.211 0 4331
- 0.173091 12 13 tcp 40 ------- 0 6.1118 13.714 0 2119
- 0.173219 12 13 tcp 1540 ------- 0 12.909 13.785 9 4566
+ 0.173278 12 13 ack 40 ------- 0 10.483 13.291 0 5421
r 0.174911 12 13 tcp 1540 ------- 0 15.398 13.839 16 2840
r 0.175039 12 13 tcp 40 ------- 0 6.1118 13.714 0 2119
+ 0.176905 12 13 tcp 1540 ------- 0 15.398 13.839 18 4370
+ 0.178137 12 13 tcp 1540 ------- 0 15.398 13.839 19 4371
d 0.178137 12 13 tcp 1540 ------- 0 15.398 13.839 19 4371
- 0.178147 12 13 tcp 40 ------- 0 15.401 13.842 0 3348
- 0.178275 12 13 tcp 1540 ------- 0 12.910 13.786 13 4730
+ 0.179369 12 13 tcp 1540 ------- 0 15.398 13.839 20 4372
r 0.179967 12 13 tcp 1540 ------- 0 12.909 13.785 9 4566
r 0.180095 12 13 tcp 40 ------- 0 15.401 13.842 0 3348
+ 0.181833 12 13 tcp 1540 ------- 0 15.398 13.839 21 4403
- 0.183203 12 13 tcp 1540 ------- 0 0.1018 13.388 1 3133
+ 0.183366 12 13 tcp 1540 ------- 0 12.909 13.785 10 5918
+ 0.184329 12 13 tcp 40 ------- 0 5.1304 13.620 0 4205
d 0.184329 12 13 tcp 40 ------- 0 5.1304 13.620 0 4205
r 0.185023 12 13 tcp 1540 ------- 0 12.910 13.786 13 4730
+ 0.186887 12 13 ack 40 ------- 0 12.610 13.312 0 6030
d 0.186887 12 13 ack 40 ------- 0 12.610 13.312 0 6030
+ 0.187015 12 13 tcp 1540 ------- 0 12.910 13.786 14 6034
d 0.187015 12 13 tcp 1540 ------- 0 12.910 13.786 14 6034
- 0.188131 12 13 tcp 40 ------- 0 4.1053 13.609 0 3332
- 0.188259 12 13 tcp 40 ------- 0 0.1073 13.443 0 3456
- 0.188387 12 13 tcp 40 ------- 0 20.446 13.1060 0 2796
- 0.188515 12 13 tcp 40 ------- 0 1.1417 13.513 0 2326
- 0.188643 12 13 ack 40 ------- 0 10.483 13.291 0 5421
- 0.188771 12 13 tcp 1540 ------- 0 15.398 13.839 18 4370
+ 0.189289 12 13 ack 40 ------- 0 17.924 13.1279 0 3930
r 0.189951 12 13 tcp 1540 ------- 0 0.1018 13.388 1 3133
r 0.190079 12 13 tcp 40 ------- 0 4.1053 13.609 0 3332
r 0.190207 12 13 tcp 40 ------- 0 0.1073 13.443 0 3456
r 0.190335 12 13 tcp 40 ------- 0 20.446 13.1060 0 2796
r 0.190463 12 13 tcp 40 ------- 0 1.1417 13.513 0 2326
r 0.190591 12 13 ack 40 ------- 0 10.483 13.291 0 5421
- 0.193699 12 13 tcp 1540 ------- 0 15.398 13.839 20 4372
r 0.195519 12 13 tcp 1540 ------- 0 15.398 13.839 18 4370
- 0.198627 12 13 tcp 1540 ------- 0 15.398 13.839 21 4403
r 0.200447 12 13 tcp 1540 ------- 0 15.398 13.839 20 4372
- 0.203555 12 13 tcp 1540 ------- 0 12.909 13.785 10 5918
+ 0.204169 12 13 tcp 40 ------- 0 6.1115 13.711 0 3805
r 0.205375 12 13 tcp 1540 ------- 0 15.398 13.839 21 4403
- 0.208483 12 13 ack 40 ------- 0 17.924 13.1279 0 3930
- 0.208611 12 13 tcp 40 ------- 0 6.1115 13.711 0 3805
+ 0.208673 12 13 tcp 40 ------- 0 11.1144 13.764 0 6782
- 0.208739 12 13 tcp 40 ------- 0 11.1144 13.764 0 6782
r 0.210303 12 13 tcp 1540 ------- 0 12.909 13.785 10 5918
r 0.210431 12 13 ack 40 ------- 0 17.924 13.1279 0 3930
+ 0.210489 12 13 tcp 1540 ------- 0 4.1047 13.603 3 5657
- 0.210489 12 13 tcp 1540 ------- 0 4.1047 13.603 3 5657
r 0.210559 12 13 tcp 40 ------- 0 6.1115 13.711 0 3805
r 0.210687 12 13 tcp 40 ------- 0 11.1144 13.764 0 6782
+ 0.211753 12 13 tcp 1540 ------- 0 4.1047 13.603 4 5658
+ 0.213574 12 13 tcp 1540 ---A--- 0 12.909 13.785 4 6969
+ 0.214217 12 13 tcp 1540 ------- 0 4.1047 13.603 5 5706
- 0.215417 12 13 tcp 1540 ------- 0 4.1047 13.603 4 5658
+ 0.216681 12 13 tcp 1540 ------- 0 4.1047 13.603 6 5707
r 0.217238 12 13 tcp 1540 ------- 0 4.1047 13.603 3 5657
+ 0.217913 12 13 tcp 1540 ------- 0 15.398 13.839 22 6053
+ 0.219465 12 13 tcp 1540 ------- 0 4.1055 13.611 5 6382
- 0.220345 12 13 tcp 1540 ---A--- 0 12.909 13.785 4 6969
+ 0.220697 12 13 tcp 1540 ---A--- 0 15.398 13.839 11 6626
+ 0.220729 12 13 tcp 40 ------- 0 1.1457 13.553 0 4099
+ 0.221961 12 13 tcp 1540 ------- 0 4.1055 13.611 6 6383
r 0.222166 12 13 tcp 1540 ------- 0 4.1047 13.603 4 5658
+ 0.223193 12 13 tcp 1540 ------- 0 4.1055 13.611 7 6384
+ 0.224425 12 13 tcp 1540 ------- 0 4.1055 13.611 8 6386
- 0.225273 12 13 tcp 1540 ------- 0 4.1047 13.603 5 5706
+ 0.225657 12 13 tcp 1540 ------- 0 4.1055 13.611 9 6387
r 0.227094 12 13 tcp 1540 ---A--- 0 12.909 13.785 4 6969
+ 0.228153 12 13 tcp 40 ------- 0 15.404 13.845 0 6953
d 0.228153 12 13 tcp 40 ------- 0 15.404 13.845 0 6953
+ 0.229042 12 13 tcp 1540 ------- 0 12.909 13.785 6 7544
d 0.229042 12 13 tcp 1540 ------- 0 12.909 13.785 6 7544
+ 0.229042 12 13 tcp 1540 ------- 0 12.909 13.785 7 7545
d 0.229042 12 13 tcp 1540 ------- 0 12.909 13.785 7 7545
- 0.230201 12 13 tcp 1540 ------- 0 4.1047 13.603 6 5707
+ 0.230713 12 13 ack 40 ------- 0 17.970 13.1325 1 5934
+ 0.230745 12 13 ack 40 ------- 0 17.976 13.1331 0 5945
d 0.230745 12 13 ack 40 ------- 0 17.976 13.1331 0 5945
+ 0.230841 12 13 tcp 40 ------- 0 1.1465 13.561 0 4874
d 0.230841 12 13 tcp 40 ------- 0 1.1465 13.561 0 4874
r 0.232022 12 13 tcp 1540 ------- 0 4.1047 13.603 5 5706
+ 0.232073 12 13 tcp 1540 ------- 0 4.1053 13.609 1 7290
d 0.232073 12 13 tcp 1540 ------- 0 4.1053 13.609 1 7290
+ 0.233305 12 13 tcp 1540 ------- 0 4.1053 13.609 2 7291
d 0.233305 12 13 tcp 1540 ------- 0 4.1053 13.609 2 7291
- 0.235129 12 13 tcp 1540 ------- 0 15.398 13.839 22 6053
r 0.23695 12 13 tcp 1540 ------- 0 4.1047 13.603 6 5707
- 0.240057 12 13 tcp 1540 ------- 0 4.1055 13.611 5 6382
r 0.241878 12 13 tcp 1540 ------- 0 15.398 13.839 22 6053
+ 0.242576 12 13 ack 40 ------- 0 12.634 13.336 0 8037
- 0.244985 12 13 tcp 1540 ---A--- 0 15.398 13.839 11 6626
r 0.246806 12 13 tcp 1540 ------- 0 4.1055 13.611 5 6382
- 0.249913 12 13 tcp 40 ------- 0 1.1457 13.553 0 4099
- 0.250041 12 13 tcp 1540 ------- 0 4.1055 13.611 6 6383
+ 0.250873 12 13 tcp 40 ------- 0 1.1413 13.509 0 5277
r 0.251734 12 13 tcp 1540 ---A--- 0 15.398 13.839 11 6626
r 0.251862 12 13 tcp 40 ------- 0 1.1457 13.553 0 4099
- 0.254969 12 13 tcp 1540 ------- 0 4.1055 13.611 7 6384
r 0.25679 12 13 tcp 1540 ------- 0 4.1055 13.611 6 6383
- 0.259897 12 13 tcp 1540 ------- 0 4.1055 13.611 8 6386
r 0.261718 12 13 tcp 1540 ------- 0 4.1055 13.611 7 6384
- 0.264825 12 13 tcp 1540 ------- 0 4.1055 13.611 9 6387
r 0.266646 12 13 tcp 1540 ------- 0 4.1055 13.611 8 6386
- 0.269753 12 13 ack 40 ------- 0 17.970 13.1325 1 5934
- 0.269881 12 13 ack 40 ------- 0 12.634 13.336 0 8037
- 0.270009 12 13 tcp 40 ------- 0 1.1413 13.509 0 5277
r 0.271574 12 13 tcp 1540 ------- 0 4.1055 13.611 9 6387
r 0.271702 12 13 ack 40 ------- 0 17.970 13.1325 1 5934
r 0.27183 12 13 ack 40 ------- 0 12.634 13.336 0 8037
r 0.271958 12 13 tcp 40 ------- 0 1.1413 13.509 0 5277
+ 0.272041 12 13 tcp 40 ------- 0 20.430 13.1044 0 4184
- 0.272041 12 13 tcp 40 ------- 0 20.430 13.1044 0 4184
r 0.27399 12 13 tcp 40 ------- 0 20.430 13.1044 0 4184
+ 0.278578 12 13 ack 40 ------- 0 12.634 13.336 1 9433
- 0.278578 12 13 ack 40 ------- 0 12.634 13.336 1 9433
r 0.280527 12 13 ack 40 ------- 0 12.634 13.336 1 9433
+ 0.280806 12 13 tcp 1540 ------- 0 10.809 13.753 1 8211
- 0.280806 12 13 tcp 1540 ------- 0 10.809 13.753 1 8211
+ 0.280921 12 13 tcp 40 ------- 0 4.1048 13.604 0 8539
+ 0.282574 12 13 tcp 40 ------- 0 12.919 13.795 0 9599
+ 0.283506 12 13 ack 40 ------- 0 12.634 13.336 2 9640
- 0.285734 12 13 tcp 40 ------- 0 4.1048 13.604 0 8539
- 0.285862 12 13 tcp 40 ------- 0 12.919 13.795 0 9599
- 0.28599 12 13 ack 40 ------- 0 12.634 13.336 2 9640
+ 0.287113 12 13 tcp 40 ------- 0 20.398 13.1012 0 4373
- 0.287113 12 13 tcp 40 ------- 0 20.398 13.1012 0 4373
r 0.287555 12 13 tcp 1540 ------- 0 10.809 13.753 1 8211
r 0.287683 12 13 tcp 40 ------- 0 4.1048 13.604 0 8539
r 0.287811 12 13 tcp 40 ------- 0 12.919 13.795 0 9599
r 0.287939 12 13 ack 40 ------- 0 12.634 13.336 2 9640
+ 0.288562 12 13 ack 40 ------- 0 12.634 13.336 3 9814
- 0.288562 12 13 ack 40 ------- 0 12.634 13.336 3 9814
r 0.289062 12 13 tcp 40 ------- 0 20.398 13.1012 0 4373
r 0.290511 12 13 ack 40 ------- 0 12.634 13.336 3 9814
+ 0.29349 12 13 ack 40 ------- 0 12.634 13.336 4 9994
- 0.29349 12 13 ack 40 ------- 0 12.634 13.336 4 9994
+ 0.29413 12 13 tcp 1540 ------- 0 12.919 13.795 1 10023
- 0.29413 12 13 tcp 1540 ------- 0 12.919 13.795 1 10023
+ 0.29413 12 13 tcp 1540 ------- 0 12.919 13.795 2 10024
r 0.295439 12 13 ack 40 ------- 0 12.634 13.336 4 9994
+ 0.296102 12 13 tcp 1540 ------- 0 2.962 13.572 1 8922
+ 0.296358 12 13 tcp 40 ------- 0 11.1141 13.761 0 9991
+ 0.299058 12 13 ack 40 ------- 0 12.634 13.336 5 10245
- 0.299058 12 13 tcp 1540 ------- 0 12.919 13.795 2 10024
r 0.300879 12 13 tcp 1540 ------- 0 12.919 13.795 1 10023
+ 0.301286 12 13 tcp 1540 ------- 0 2.962 13.572 2 8923
+ 0.303986 12 13 ack 40 ------- 0 12.634 13.336 6 10452
- 0.303986 12 13 tcp 1540 ------- 0 2.962 13.572 1 8922
r 0.305807 12 13 tcp 1540 ------- 0 12.919 13.795 2 10024
+ 0.305817 12 13 ack 40 ------- 0 6.586 13.175 0 8239
+ 0.308345 12 13 tcp 1540 ------- 0 4.1047 13.603 7 9352
+ 0.308914 12 13 ack 40 ------- 0 12.634 13.336 7 10651
- 0.308914 12 13 tcp 40 ------- 0 11.1141 13.761 0 9991
- 0.309042 12 13 ack 40 ------- 0 12.634 13.336 5 10245
- 0.30917 12 13 tcp 1540 ------- 0 2.962 13.572 2 8923
r 0.310735 12 13 tcp 1540 ------- 0 2.962 13.572 1 8922
r 0.310863 12 13 tcp 40 ------- 0 11.1141 13.761 0 9991
r 0.310991 12 13 ack 40 ------- 0 12.634 13.336 5 10245
+ 0.313842 12 13 ack 40 ------- 0 12.634 13.336 8 10853
- 0.314098 12 13 ack 40 ------- 0 12.634 13.336 6 10452
- 0.314226 12 13 ack 40 ------- 0 6.586 13.175 0 8239
- 0.314354 12 13 tcp 1540 ------- 0 4.1047 13.603 7 9352
+ 0.314537 12 13 tcp 1540 ------- 0 4.1047 13.603 8 9353
+ 0.315833 12 13 tcp 40 ------- 0 1.1364 13.460 0 6931
r 0.315919 12 13 tcp 1540 ------- 0 2.962 13.572 2 8923
r 0.316047 12 13 ack 40 ------- 0 12.634 13.336 6 10452
r 0.316175 12 13 ack 40 ------- 0 6.586 13.175 0 8239
+ 0.317065 12 13 tcp 1540 ------- 0 4.1047 13.603 9 9356
+ 0.31877 12 13 ack 40 ------- 0 12.634 13.336 9 11034
- 0.319282 12 13 ack 40 ------- 0 12.634 13.336 7 10651
- 0.31941 12 13 ack 40 ------- 0 12.634 13.336 8 10853
- 0.319538 12 13 tcp 1540 ------- 0 4.1047 13.603 8 9353
+ 0.320761 12 13 tcp 1540 ------- 0 4.1047 13.603 10 9357
+ 0.320825 12 13 ack 40 ------- 0 6.574 13.163 0 8795
+ 0.320857 12 13 ack 40 ------- 0 6.579 13.168 0 8797
r 0.321103 12 13 tcp 1540 ------- 0 4.1047 13.603 7 9352
r 0.321231 12 13 ack 40 ------- 0 12.634 13.336 7 10651
r 0.321359 12 13 ack 40 ------- 0 12.634 13.336 8 10853
+ 0.322089 12 13 tcp 1540 ------- 0 4.1047 13.603 11 9420
+ 0.323321 12 13 tcp 1540 ------- 0 4.1047 13.603 12 9421
+ 0.323698 12 13 ack 40 ------- 0 12.634 13.336 10 11254
+ 0.323826 12 13 tcp 1540 ------- 0 12.919 13.795 3 11256
d 0.323826 12 13 tcp 1540 ------- 0 12.919 13.795 3 11256
+ 0.323826 12 13 tcp 1540 ------- 0 12.919 13.795 4 11257
d 0.323826 12 13 tcp 1540 ------- 0 12.919 13.795 4 11257
+ 0.324082 12 13 tcp 1540 ------- 0 12.919 13.795 5 11265
d 0.324082 12 13 tcp 1540 ------- 0 12.919 13.795 5 11265
+ 0.324082 12 13 tcp 1540 ------- 0 12.919 13.795 6 11266
d 0.324082 12 13 tcp 1540 ------- 0 12.919 13.795 6 11266
- 0.324466 12 13 tcp 40 ------- 0 1.1364 13.460 0 6931
- 0.324594 12 13 tcp 1540 ------- 0 4.1047 13.603 9 9356
r 0.326287 12 13 tcp 1540 ------- 0 4.1047 13.603 8 9353
r 0.326415 12 13 tcp 40 ------- 0 1.1364 13.460 0 6931
+ 0.327366 12 13 tcp 1540 ---A--- 0 12.910 13.786 6 11395
+ 0.329266 12 13 ack 40 ------- 0 12.634 13.336 11 11471
+ 0.329481 12 13 tcp 1540 ------- 0 4.1047 13.603 13 9425
d 0.329481 12 13 tcp 1540 ------- 0 4.1047 13.603 13 9425
- 0.329522 12 13 ack 40 ------- 0 12.634 13.336 9 11034
- 0.32965 12 13 tcp 1540 ------- 0 4.1047 13.603 10 9357
+ 0.330713 12 13 tcp 1540 ------- 0 4.1047 13.603 14 9426
r 0.331343 12 13 tcp 1540 ------- 0 4.1047 13.603 9 9356
r 0.331471 12 13 ack 40 ------- 0 12.634 13.336 9 11034
+ 0.334194 12 13 ack 40 ------- 0 12.634 13.336 12 11668
- 0.334578 12 13 ack 40 ------- 0 6.574 13.163 0 8795
- 0.334706 12 13 ack 40 ------- 0 6.579 13.168 0 8797
- 0.334834 12 13 tcp 1540 ------- 0 4.1047 13.603 11 9420
r 0.336399 12 13 tcp 1540 ------- 0 4.1047 13.603 10 9357
r 0.336527 12 13 ack 40 ------- 0 6.574 13.163 0 8795
r 0.336655 12 13 ack 40 ------- 0 6.579 13.168 0 8797
+ 0.339378 12 13 ack 40 ------- 0 12.634 13.336 13 11894
- 0.339762 12 13 tcp 1540 ------- 0 4.1047 13.603 12 9421
r 0.341583 12 13 tcp 1540 ------- 0 4.1047 13.603 11 9420
+ 0.341734 12 13 tcp 40 ------- 0 18.185 13.944 0 9766
+ 0.34199 12 13 tcp 40 ------- 0 16.398 13.914 0 7449
+ 0.344306 12 13 ack 40 ------- 0 12.634 13.336 14 12109
- 0.34469 12 13 ack 40 ------- 0 12.634 13.336 10 11254
- 0.344818 12 13 tcp 1540 ---A--- 0 12.910 13.786 6 11395
r 0.346511 12 13 tcp 1540 ------- 0 4.1047 13.603 12 9421
r 0.346639 12 13 ack 40 ------- 0 12.634 13.336 10 11254
+ 0.348153 12 13 tcp 40 ------- 0 1.1385 13.481 0 7723
+ 0.348217 12 13 tcp 40 ------- 0 24.297 13.1114 0 9224
+ 0.349362 12 13 ack 40 ------- 0 12.634 13.336 15 12295
d 0.349362 12 13 ack 40 ------- 0 12.634 13.336 15 12295
- 0.349746 12 13 ack 40 ------- 0 12.634 13.336 11 11471
- 0.349874 12 13 tcp 1540 ------- 0 4.1047 13.603 14 9426
r 0.351567 12 13 tcp 1540 ---A--- 0 12.910 13.786 6 11395
r 0.351695 12 13 ack 40 ------- 0 12.634 13.336 11 11471
+ 0.35429 12 13 ack 40 ------- 0 12.634 13.336 16 12485
- 0.354802 12 13 ack 40 ------- 0 12.634 13.336 12 11668
- 0.35493 12 13 ack 40 ------- 0 12.634 13.336 13 11894
- 0.355058 12 13 tcp 40 ------- 0 18.185 13.944 0 9766
- 0.355186 12 13 tcp 40 ------- 0 16.398 13.914 0 7449
- 0.355314 12 13 ack 40 ------- 0 12.634 13.336 14 12109
- 0.355442 12 13 tcp 40 ------- 0 1.1385 13.481 0 7723
- 0.35557 12 13 tcp 40 ------- 0 24.297 13.1114 0 9224
- 0.355698 12 13 ack 40 ------- 0 12.634 13.336 16 12485
r 0.356623 12 13 tcp 1540 ------- 0 4.1047 13.603 14 9426
r 0.356751 12 13 ack 40 ------- 0 12.634 13.336 12 11668
r 0.356879 12 13 ack 40 ------- 0 12.634 13.336 13 11894
r 0.357007 12 13 tcp 40 ------- 0 18.185 13.944 0 9766
r 0.357135 12 13 tcp 40 ------- 0 16.398 13.914 0 7449
r 0.357263 12 13 ack 40 ------- 0 12.634 13.336 14 12109
r 0.357391 12 13 tcp 40 ------- 0 1.1385 13.481 0 7723
r 0.357519 12 13 tcp 40 ------- 0 24.297 13.1114 0 9224
r 0.357647 12 13 ack 40 ------- 0 12.634 13.336 16 12485
+ 0.359218 12 13 ack 40 ------- 0 12.634 13.336 17 12669
- 0.359218 12 13 ack 40 ------- 0 12.634 13.336 17 12669
r 0.361167 12 13 ack 40 ------- 0 12.634 13.336 17 12669
+ 0.361897 12 13 tcp 40 ------- 0 0.1006 13.376 0 10545
- 0.361897 12 13 tcp 40 ------- 0 0.1006 13.376 0 10545
r 0.363846 12 13 tcp 40 ------- 0 0.1006 13.376 0 10545
+ 0.364146 12 13 ack 40 ------- 0 12.634 13.336 18 12869
- 0.364146 12 13 ack 40 ------- 0 12.634 13.336 18 12869
+ 0.364521 12 13 ack 40 ------- 0 3.444 13.105 0 10804
- 0.364521 12 13 ack 40 ------- 0 3.444 13.105 0 10804
+ 0.364553 12 13 tcp 40 ------- 0 1.1425 13.521 0 8279
- 0.364649 12 13 tcp 40 ------- 0 1.1425 13.521 0 8279
+ 0.365785 12 13 tcp 1540 ---A--- 0 0.1018 13.388 1 10793
- 0.365785 12 13 tcp 1540 ---A--- 0 0.1018 13.388 1 10793
+ 0.365817 12 13 tcp 40 ------- 0 0.1065 13.435 0 10873
+ 0.365913 12 13 tcp 40 ------- 0 1.1394 13.490 0 8566
r 0.366095 12 13 ack 40 ------- 0 12.634 13.336 18 12869
r 0.36647 12 13 ack 40 ------- 0 3.444 13.105 0 10804
r 0.366598 12 13 tcp 40 ------- 0 1.1425 13.521 0 8279
+ 0.369458 12 13 ack 40 ------- 0 12.634 13.336 19 13058
- 0.370713 12 13 tcp 40 ------- 0 0.1065 13.435 0 10873
- 0.370841 12 13 tcp 40 ------- 0 1.1394 13.490 0 8566
- 0.370969 12 13 ack 40 ------- 0 12.634 13.336 19 13058
r 0.372534 12 13 tcp 1540 ---A--- 0 0.1018 13.388 1 10793
r 0.372662 12 13 tcp 40 ------- 0 0.1065 13.435 0 10873
r 0.37279 12 13 tcp 40 ------- 0 1.1394 13.490 0 8566
r 0.372918 12 13 ack 40 ------- 0 12.634 13.336 19 13058
+ 0.374386 12 13 ack 40 ------- 0 12.634 13.336 20 13259
- 0.374386 12 13 ack 40 ------- 0 12.634 13.336 20 13259
r 0.376335 12 13 ack 40 ------- 0 12.634 13.336 20 13259
+ 0.376465 12 13 tcp 1540 ------- 0 11.1144 13.764 1 12905
- 0.376465 12 13 tcp 1540 ------- 0 11.1144 13.764 1 12905
+ 0.380921 12 13 ack 40 ------- 0 17.872 13.1227 0 8665
+ 0.381393 12 13 tcp 1540 ------- 0 11.1144 13.764 2 12906
- 0.381393 12 13 ack 40 ------- 0 17.872 13.1227 0 8665
- 0.381521 12 13 tcp 1540 ------- 0 11.1144 13.764 2 12906
r 0.383214 12 13 tcp 1540 ------- 0 11.1144 13.764 1 12905
r 0.383342 12 13 ack 40 ------- 0 17.872 13.1227 0 8665
+ 0.383577 12 13 tcp 40 ------- 0 15.435 13.876 0 12679
- 0.386449 12 13 tcp 40 ------- 0 15.435 13.876 0 12679
r 0.38827 12 13 tcp 1540 ------- 0 11.1144 13.764 2 12906
r 0.388398 12 13 tcp 40 ------- 0 15.435 13.876 0 12679
+ 0.389298 12 13 ack 40 ------- 0 12.634 13.336 21 13890
- 0.389298 12 13 ack 40 ------- 0 12.634 13.336 21 13890
r 0.391247 12 13 ack 40 ------- 0 12.634 13.336 21 13890
+ 0.393529 12 13 tcp 1540 ------- 0 1.1417 13.513 1 9295
- 0.393529 12 13 tcp 1540 ------- 0 1.1417 13.513 1 9295
+ 0.393561 12 13 tcp 40 ------- 0 1.1464 13.560 0 9601
+ 0.394226 12 13 ack 40 ------- 0 12.634 13.336 22 14114
+ 0.394354 12 13 tcp 1540 ------- 0 12.910 13.786 8 14120
+ 0.394354 12 13 tcp 1540 ------- 0 12.910 13.786 9 14121
+ 0.396153 12 13 tcp 40 ------- 0 15.431 13.872 0 13028
- 0.398457 12 13 tcp 40 ------- 0 1.1464 13.560 0 9601
- 0.398585 12 13 ack 40 ------- 0 12.634 13.336 22 14114
- 0.398713 12 13 tcp 1540 ------- 0 12.910 13.786 8 14120
+ 0.399282 12 13 ack 40 ------- 0 12.634 13.336 23 14302
r 0.400278 12 13 tcp 1540 ------- 0 1.1417 13.513 1 9295
r 0.400406 12 13 tcp 40 ------- 0 1.1464 13.560 0 9601
r 0.400534 12 13 ack 40 ------- 0 12.634 13.336 22 14114
- 0.403641 12 13 tcp 1540 ------- 0 12.910 13.786 9 14121
+ 0.40421 12 13 ack 40 ------- 0 12.634 13.336 24 14512
r 0.405462 12 13 tcp 1540 ------- 0 12.910 13.786 8 14120
- 0.408569 12 13 tcp 40 ------- 0 15.431 13.872 0 13028
- 0.408697 12 13 ack 40 ------- 0 12.634 13.336 23 14302
- 0.408825 12 13 ack 40 ------- 0 12.634 13.336 24 14512
r 0.41039 12 13 tcp 1540 ------- 0 12.910 13.786 9 14121
r 0.410518 12 13 tcp 40 ------- 0 15.431 13.872 0 13028