+ 0.00017 0 3 rtProtoDV 26 ------- 0 0.1454 3.1518 -1 3
- 0.00017 0 3 rtProtoDV 26 ------- 0 0.1454 3.1518 -1 3
+ 0.003496 0 3 rtProtoDV 26 ------- 0 0.1454 3.1518 -1 48
- 0.003496 0 3 rtProtoDV 26 ------- 0 0.1454 3.1518 -1 48
+ 0.004328 0 3 rtProtoDV 26 ------- 0 0.1454 3.1518 -1 65
- 0.004328 0 3 rtProtoDV 26 ------- 0 0.1454 3.1518 -1 65
+ 0.00512 0 3 rtProtoDV 26 ------- 0 0.1454 3.1518 -1 86
- 0.00512 0 3 rtProtoDV 26 ------- 0 0.1454 3.1518 -1 86
+ 0.005689 0 3 rtProtoDV 26 ------- 0 0.1454 3.1518 -1 112
- 0.005689 0 3 rtProtoDV 26 ------- 0 0.1454 3.1518 -1 112
+ 0.005941 0 3 rtProtoDV 26 ------- 0 0.1454 3.1518 -1 118
- 0.005941 0 3 rtProtoDV 26 ------- 0 0.1454 3.1518 -1 118
r 0.006498 0 3 rtProtoDV 26 ------- 0 0.1454 3.1518 -1 3
+ 0.00816 0 3 rtProtoDV 26 ------- 0 0.1454 3.1518 -1 215
- 0.00816 0 3 rtProtoDV 26 ------- 0 0.1454 3.1518 -1 215
r 0.009825 0 3 rtProtoDV 26 ------- 0 0.1454 3.1518 -1 48
r 0.010657 0 3 rtProtoDV 26 ------- 0 0.1454 3.1518 -1 65
+ 0.010912 0 3 rtProtoDV 26 ------- 0 0.1454 3.1518 -1 355
- 0.010912 0 3 rtProtoDV 26 ------- 0 0.1454 3.1518 -1 355
r 0.011449 0 3 rtProtoDV 26 ------- 0 0.1454 3.1518 -1 86
r 0.012018 0 3 rtProtoDV 26 ------- 0 0.1454 3.1518 -1 112
r 0.012269 0 3 rtProtoDV 26 ------- 0 0.1454 3.1518 -1 118
r 0.014488 0 3 rtProtoDV 26 ------- 0 0.1454 3.1518 -1 215
+ 0.014544 0 3 rtProtoDV 26 ------- 0 0.1454 3.1518 -1 542
- 0.014544 0 3 rtProtoDV 26 ------- 0 0.1454 3.1518 -1 542
+ 0.014807 0 3 rtProtoDV 26 ------- 0 0.1454 3.1518 -1 554
- 0.014807 0 3 rtProtoDV 26 ------- 0 0.1454 3.1518 -1 554
+ 0.016672 0 3 rtProtoDV 26 ------- 0 0.1454 3.1518 -1 620
- 0.016672 0 3 rtProtoDV 26 ------- 0 0.1454 3.1518 -1 620
+ 0.017059 0 3 rtProtoDV 26 ------- 0 0.1454 3.1518 -1 642
- 0.017059 0 3 rtProtoDV 26 ------- 0 0.1454 3.1518 -1 642
r 0.017241 0 3 rtProtoDV 26 ------- 0 0.1454 3.1518 -1 355
r 0.020872 0 3 rtProtoDV 26 ------- 0 0.1454 3.1518 -1 542
r 0.021136 0 3 rtProtoDV 26 ------- 0 0.1454 3.1518 -1 554
r 0.023 0 3 rtProtoDV 26 ------- 0 0.1454 3.1518 -1 620
r 0.023387 0 3 rtProtoDV 26 ------- 0 0.1454 3.1518 -1 642
+ 0.026989 0 3 tcp 40 ------- 0 0.707 3.74 0 918
- 0.026989 0 3 tcp 40 ------- 0 0.707 3.74 0 918
+ 0.029305 0 3 tcp 40 ------- 0 4.55 3.176 0 904
- 0.029305 0 3 tcp 40 ------- 0 4.55 3.176 0 904
+ 0.030514 0 3 tcp 40 ------- 0 1.1088 3.95 0 761
- 0.030514 0 3 tcp 40 ------- 0 1.1088 3.95 0 761
r 0.033329 0 3 tcp 40 ------- 0 0.707 3.74 0 918
+ 0.035527 0 3 tcp 40 ------- 0 16.61 3.508 0 799
- 0.035527 0 3 tcp 40 ------- 0 16.61 3.508 0 799
r 0.035645 0 3 tcp 40 ------- 0 4.55 3.176 0 904
+ 0.03665 0 3 tcp 40 ------- 0 2.733 3.121 0 1033
- 0.03665 0 3 tcp 40 ------- 0 2.733 3.121 0 1033
r 0.036854 0 3 tcp 40 ------- 0 1.1088 3.95 0 761
+ 0.039679 0 3 tcp 40 ------- 0 9.242 3.337 0 1047
- 0.039679 0 3 tcp 40 ------- 0 9.242 3.337 0 1047
+ 0.039695 0 3 tcp 1540 ------- 0 0.707 3.74 1 1220
+ 0.039695 0 3 tcp 1540 ------- 0 0.707 3.74 2 1221
- 0.039711 0 3 tcp 1540 ------- 0 0.707 3.74 1 1220
- 0.040943 0 3 tcp 1540 ------- 0 0.707 3.74 2 1221
r 0.041867 0 3 tcp 40 ------- 0 16.61 3.508 0 799
r 0.042989 0 3 tcp 40 ------- 0 2.733 3.121 0 1033
r 0.046019 0 3 tcp 40 ------- 0 9.242 3.337 0 1047
r 0.047251 0 3 tcp 1540 ------- 0 0.707 3.74 1 1220
r 0.048483 0 3 tcp 1540 ------- 0 0.707 3.74 2 1221
+ 0.05049 0 3 tcp 1540 ------- 0 4.55 3.176 1 1377
- 0.05049 0 3 tcp 1540 ------- 0 4.55 3.176 1 1377
+ 0.051722 0 3 tcp 1540 ------- 0 4.55 3.176 2 1378
- 0.051722 0 3 tcp 1540 ------- 0 4.55 3.176 2 1378
+ 0.054761 0 3 tcp 1540 ------- 0 0.707 3.74 3 1610
- 0.054761 0 3 tcp 1540 ------- 0 0.707 3.74 3 1610
+ 0.054761 0 3 tcp 1540 ------- 0 0.707 3.74 4 1611
+ 0.054823 0 3 tcp 1540 ------- 0 0.707 3.74 5 1615
+ 0.054823 0 3 tcp 1540 ------- 0 0.707 3.74 6 1616
- 0.055993 0 3 tcp 1540 ------- 0 0.707 3.74 4 1611
- 0.057225 0 3 tcp 1540 ------- 0 0.707 3.74 5 1615
r 0.05803 0 3 tcp 1540 ------- 0 4.55 3.176 1 1377
- 0.058457 0 3 tcp 1540 ------- 0 0.707 3.74 6 1616
r 0.059262 0 3 tcp 1540 ------- 0 4.55 3.176 2 1378
r 0.062301 0 3 tcp 1540 ------- 0 0.707 3.74 3 1610
r 0.063533 0 3 tcp 1540 ------- 0 0.707 3.74 4 1611
r 0.064765 0 3 tcp 1540 ------- 0 0.707 3.74 5 1615
r 0.065997 0 3 tcp 1540 ------- 0 0.707 3.74 6 1616
+ 0.06864 0 3 tcp 1540 ------- 0 0.707 3.74 7 1999
- 0.06864 0 3 tcp 1540 ------- 0 0.707 3.74 7 1999
+ 0.06864 0 3 tcp 1540 ------- 0 0.707 3.74 8 2000
+ 0.069578 0 3 ack 40 ------- 0 12.406 3.1111 0 1607
+ 0.069642 0 3 tcp 40 ------- 0 4.57 3.178 0 1784
+ 0.069872 0 3 tcp 1540 ------- 0 0.707 3.74 9 2045
+ 0.069872 0 3 tcp 1540 ------- 0 0.707 3.74 10 2046
- 0.069872 0 3 tcp 1540 ------- 0 0.707 3.74 8 2000
+ 0.071104 0 3 tcp 1540 ------- 0 0.707 3.74 11 2083
+ 0.071104 0 3 tcp 1540 ------- 0 0.707 3.74 12 2084
- 0.071104 0 3 ack 40 ------- 0 12.406 3.1111 0 1607
- 0.071136 0 3 tcp 40 ------- 0 4.57 3.178 0 1784
- 0.071168 0 3 tcp 1540 ------- 0 0.707 3.74 9 2045
+ 0.072336 0 3 tcp 1540 ------- 0 0.707 3.74 13 2137
+ 0.072336 0 3 tcp 1540 ------- 0 0.707 3.74 14 2138
- 0.0724 0 3 tcp 1540 ------- 0 0.707 3.74 10 2046
+ 0.073147 0 3 tcp 1540 ------- 0 2.733 3.121 1 1540
- 0.073632 0 3 tcp 1540 ------- 0 0.707 3.74 11 2083
+ 0.074379 0 3 tcp 1540 ------- 0 2.733 3.121 2 1541
- 0.074864 0 3 tcp 1540 ------- 0 0.707 3.74 12 2084
+ 0.075271 0 3 ack 40 ------- 0 16.502 3.1204 0 1015
- 0.076096 0 3 tcp 1540 ------- 0 0.707 3.74 13 2137
r 0.07618 0 3 tcp 1540 ------- 0 0.707 3.74 7 1999
- 0.077328 0 3 tcp 1540 ------- 0 0.707 3.74 14 2138
r 0.077412 0 3 tcp 1540 ------- 0 0.707 3.74 8 2000
r 0.077444 0 3 ack 40 ------- 0 12.406 3.1111 0 1607
r 0.077476 0 3 tcp 40 ------- 0 4.57 3.178 0 1784
+ 0.078029 0 3 tcp 40 ------- 0 0.692 3.59 0 2314
- 0.07856 0 3 tcp 1540 ------- 0 2.733 3.121 1 1540
r 0.078708 0 3 tcp 1540 ------- 0 0.707 3.74 9 2045
- 0.079792 0 3 tcp 1540 ------- 0 2.733 3.121 2 1541
r 0.07994 0 3 tcp 1540 ------- 0 0.707 3.74 10 2046
- 0.081024 0 3 ack 40 ------- 0 16.502 3.1204 0 1015
- 0.081056 0 3 tcp 40 ------- 0 0.692 3.59 0 2314
r 0.081172 0 3 tcp 1540 ------- 0 0.707 3.74 11 2083
+ 0.081591 0 3 tcp 1540 ------- 0 1.1088 3.95 1 1371
- 0.081591 0 3 tcp 1540 ------- 0 1.1088 3.95 1 1371
r 0.082404 0 3 tcp 1540 ------- 0 0.707 3.74 12 2084
+ 0.08252 0 3 tcp 1540 ------- 0 0.707 3.74 15 2482
+ 0.08252 0 3 tcp 1540 ------- 0 0.707 3.74 16 2483
+ 0.082823 0 3 tcp 1540 ------- 0 1.1088 3.95 2 1372
- 0.082823 0 3 tcp 1540 ------- 0 0.707 3.74 15 2482
+ 0.08345 0 3 tcp 1540 ------- 0 4.55 3.176 3 1989
r 0.083636 0 3 tcp 1540 ------- 0 0.707 3.74 13 2137
+ 0.083909 0 3 tcp 1540 ------- 0 0.707 3.74 17 2520
+ 0.083909 0 3 tcp 1540 ------- 0 0.707 3.74 18 2521
- 0.084055 0 3 tcp 1540 ------- 0 0.707 3.74 16 2483
+ 0.084682 0 3 tcp 1540 ------- 0 4.55 3.176 4 1990
r 0.084868 0 3 tcp 1540 ------- 0 0.707 3.74 14 2138
+ 0.085048 0 3 tcp 1540 ------- 0 0.707 3.74 19 2560
+ 0.085048 0 3 tcp 1540 ------- 0 0.707 3.74 20 2561
- 0.085287 0 3 tcp 1540 ------- 0 1.1088 3.95 2 1372
r 0.0861 0 3 tcp 1540 ------- 0 2.733 3.121 1 1540
+ 0.08628 0 3 tcp 1540 ------- 0 0.707 3.74 21 2605
+ 0.08628 0 3 tcp 1540 ------- 0 0.707 3.74 22 2606
- 0.086519 0 3 tcp 1540 ------- 0 4.55 3.176 3 1989
r 0.087332 0 3 tcp 1540 ------- 0 2.733 3.121 2 1541
r 0.087364 0 3 ack 40 ------- 0 16.502 3.1204 0 1015
r 0.087396 0 3 tcp 40 ------- 0 0.692 3.59 0 2314
+ 0.087512 0 3 tcp 1540 ------- 0 0.707 3.74 23 2644
+ 0.087512 0 3 tcp 1540 ------- 0 0.707 3.74 24 2645
- 0.087751 0 3 tcp 1540 ------- 0 0.707 3.74 17 2520
+ 0.08841 0 3 tcp 1540 ------- 0 4.55 3.176 5 2040
+ 0.088837 0 3 tcp 1540 ------- 0 0.707 3.74 25 2692
d 0.088837 0 3 tcp 1540 ------- 0 0.707 3.74 25 2692
+ 0.088837 0 3 tcp 1540 ------- 0 0.707 3.74 26 2693
d 0.088837 0 3 tcp 1540 ------- 0 0.707 3.74 26 2693
- 0.088983 0 3 tcp 1540 ------- 0 0.707 3.74 18 2521
r 0.089131 0 3 tcp 1540 ------- 0 1.1088 3.95 1 1371
+ 0.089642 0 3 tcp 1540 ------- 0 4.55 3.176 6 2041
+ 0.089976 0 3 tcp 1540 ------- 0 0.707 3.74 27 2729
d 0.089976 0 3 tcp 1540 ------- 0 0.707 3.74 27 2729
+ 0.089976 0 3 tcp 1540 ------- 0 0.707 3.74 28 2730
d 0.089976 0 3 tcp 1540 ------- 0 0.707 3.74 28 2730
- 0.090215 0 3 tcp 1540 ------- 0 4.55 3.176 4 1990
r 0.090363 0 3 tcp 1540 ------- 0 0.707 3.74 15 2482
+ 0.091208 0 3 tcp 1540 ------- 0 0.707 3.74 29 2772
+ 0.091208 0 3 tcp 1540 ------- 0 0.707 3.74 30 2773
d 0.091208 0 3 tcp 1540 ------- 0 0.707 3.74 30 2773
- 0.091447 0 3 tcp 1540 ------- 0 0.707 3.74 19 2560
r 0.091595 0 3 tcp 1540 ------- 0 0.707 3.74 16 2483
- 0.092679 0 3 tcp 1540 ------- 0 0.707 3.74 20 2561
r 0.092827 0 3 tcp 1540 ------- 0 1.1088 3.95 2 1372
- 0.093911 0 3 tcp 1540 ------- 0 0.707 3.74 21 2605
+ 0.093943 0 3 tcp 1540 ------- 0 16.61 3.508 1 1568
r 0.094059 0 3 tcp 1540 ------- 0 4.55 3.176 3 1989
- 0.095143 0 3 tcp 1540 ------- 0 0.707 3.74 22 2606
r 0.095291 0 3 tcp 1540 ------- 0 0.707 3.74 17 2520
+ 0.096168 0 3 tcp 1540 ------- 0 0.692 3.59 1 2906
+ 0.096168 0 3 tcp 1540 ------- 0 0.692 3.59 2 2907
- 0.096375 0 3 tcp 1540 ------- 0 0.707 3.74 23 2644
+ 0.096471 0 3 tcp 40 ------- 0 1.1094 3.101 0 1858
r 0.096523 0 3 tcp 1540 ------- 0 0.707 3.74 18 2521
+ 0.096702 0 3 tcp 1540 ------- 0 0.707 3.74 31 2923
+ 0.096702 0 3 tcp 1540 ------- 0 0.707 3.74 32 2924
d 0.096702 0 3 tcp 1540 ------- 0 0.707 3.74 32 2924
- 0.097607 0 3 tcp 1540 ------- 0 0.707 3.74 24 2645
r 0.097755 0 3 tcp 1540 ------- 0 4.55 3.176 4 1990
+ 0.097934 0 3 tcp 1540 ------- 0 0.707 3.74 33 2981
+ 0.097934 0 3 tcp 1540 ------- 0 0.707 3.74 34 2982
d 0.097934 0 3 tcp 1540 ------- 0 0.707 3.74 34 2982
- 0.098839 0 3 tcp 1540 ------- 0 4.55 3.176 5 2040
r 0.098987 0 3 tcp 1540 ------- 0 0.707 3.74 19 2560
- 0.100071 0 3 tcp 1540 ------- 0 4.55 3.176 6 2041
r 0.100219 0 3 tcp 1540 ------- 0 0.707 3.74 20 2561
- 0.101303 0 3 tcp 1540 ------- 0 0.707 3.74 29 2772
r 0.101451 0 3 tcp 1540 ------- 0 0.707 3.74 21 2605
+ 0.10163 0 3 tcp 1540 ------- 0 0.707 3.74 35 3110
+ 0.10163 0 3 tcp 1540 ------- 0 0.707 3.74 36 3111
- 0.102535 0 3 tcp 1540 ------- 0 16.61 3.508 1 1568
r 0.102683 0 3 tcp 1540 ------- 0 0.707 3.74 22 2606
+ 0.103749 0 3 tcp 1540 ------- 0 0.707 3.74 37 3181
+ 0.103749 0 3 tcp 1540 ------- 0 0.707 3.74 38 3182
- 0.103767 0 3 tcp 1540 ------- 0 0.692 3.59 1 2906
r 0.103915 0 3 tcp 1540 ------- 0 0.707 3.74 23 2644
- 0.104999 0 3 tcp 1540 ------- 0 0.692 3.59 2 2907
+ 0.105095 0 3 tcp 1540 ------- 0 16.61 3.508 2 1569
r 0.105147 0 3 tcp 1540 ------- 0 0.707 3.74 24 2645
+ 0.105326 0 3 tcp 1540 ------- 0 0.707 3.74 39 3240
- 0.106231 0 3 tcp 40 ------- 0 1.1094 3.101 0 1858
- 0.106263 0 3 tcp 1540 ------- 0 0.707 3.74 31 2923
r 0.106379 0 3 tcp 1540 ------- 0 4.55 3.176 5 2040
+ 0.106558 0 3 tcp 1540 ------- 0 0.707 3.74 40 3279
- 0.107495 0 3 tcp 1540 ------- 0 0.707 3.74 33 2981
r 0.107611 0 3 tcp 1540 ------- 0 4.55 3.176 6 2041
+ 0.108677 0 3 tcp 1540 ------- 0 0.707 3.74 41 3338
- 0.108727 0 3 tcp 1540 ------- 0 0.707 3.74 35 3110
r 0.108843 0 3 tcp 1540 ------- 0 0.707 3.74 29 2772
+ 0.108858 0 3 ack 40 ------- 0 4.241 3.736 0 2466
+ 0.109022 0 3 tcp 1540 ------- 0 0.707 3.74 42 3351
- 0.109959 0 3 tcp 1540 ------- 0 0.707 3.74 36 3111
r 0.110075 0 3 tcp 1540 ------- 0 16.61 3.508 1 1568
+ 0.110254 0 3 tcp 1540 ------- 0 0.707 3.74 43 3384
- 0.111191 0 3 tcp 1540 ------- 0 0.707 3.74 37 3181
r 0.111307 0 3 tcp 1540 ------- 0 0.692 3.59 1 2906
+ 0.111486 0 3 tcp 1540 ------- 0 0.707 3.74 44 3433
- 0.112423 0 3 tcp 1540 ------- 0 0.707 3.74 38 3182
r 0.112539 0 3 tcp 1540 ------- 0 0.692 3.59 2 2907
r 0.112571 0 3 tcp 40 ------- 0 1.1094 3.101 0 1858
- 0.113655 0 3 tcp 1540 ------- 0 16.61 3.508 2 1569
r 0.113803 0 3 tcp 1540 ------- 0 0.707 3.74 31 2923
+ 0.113882 0 3 tcp 1540 ------- 0 4.57 3.178 1 2608
- 0.114887 0 3 tcp 1540 ------- 0 0.707 3.74 39 3240
r 0.115035 0 3 tcp 1540 ------- 0 0.707 3.74 33 2981
+ 0.115114 0 3 tcp 1540 ------- 0 4.57 3.178 2 2609
- 0.116119 0 3 tcp 1540 ------- 0 0.707 3.74 40 3279
r 0.116267 0 3 tcp 1540 ------- 0 0.707 3.74 35 3110
- 0.117351 0 3 tcp 1540 ------- 0 0.707 3.74 41 3338
r 0.117499 0 3 tcp 1540 ------- 0 0.707 3.74 36 3111
- 0.118583 0 3 ack 40 ------- 0 4.241 3.736 0 2466
- 0.118615 0 3 tcp 1540 ------- 0 0.707 3.74 42 3351
+ 0.118629 0 3 tcp 1540 ------- 0 0.692 3.59 3 3622
+ 0.118629 0 3 tcp 1540 ------- 0 0.692 3.59 4 3623
r 0.118731 0 3 tcp 1540 ------- 0 0.707 3.74 37 3181
+ 0.118878 0 3 tcp 1540 ------- 0 0.692 3.59 5 3630
+ 0.118878 0 3 tcp 1540 ------- 0 0.692 3.59 6 3631
- 0.119847 0 3 tcp 1540 ------- 0 0.707 3.74 43 3384
r 0.119963 0 3 tcp 1540 ------- 0 0.707 3.74 38 3182
+ 0.120603 0 3 ack 40 ------- 0 9.604 3.1026 0 1871
- 0.121079 0 3 tcp 1540 ------- 0 0.707 3.74 44 3433
r 0.121195 0 3 tcp 1540 ------- 0 16.61 3.508 2 1569
+ 0.121374 0 3 tcp 1540 ---A--- 0 0.707 3.74 25 3716
- 0.122311 0 3 tcp 1540 ------- 0 4.57 3.178 1 2608
r 0.122427 0 3 tcp 1540 ------- 0 0.707 3.74 39 3240
- 0.123543 0 3 tcp 1540 ------- 0 4.57 3.178 2 2609
r 0.123659 0 3 tcp 1540 ------- 0 0.707 3.74 40 3279
- 0.124775 0 3 tcp 1540 ------- 0 0.692 3.59 3 3622
r 0.124891 0 3 tcp 1540 ------- 0 0.707 3.74 41 3338
r 0.124923 0 3 ack 40 ------- 0 4.241 3.736 0 2466
- 0.126007 0 3 tcp 1540 ------- 0 0.692 3.59 4 3623
r 0.126155 0 3 tcp 1540 ------- 0 0.707 3.74 42 3351
- 0.127239 0 3 tcp 1540 ------- 0 0.692 3.59 5 3630
r 0.127387 0 3 tcp 1540 ------- 0 0.707 3.74 43 3384
+ 0.127978 0 3 tcp 1540 ------- 0 4.55 3.176 7 3189
- 0.128471 0 3 tcp 1540 ------- 0 0.692 3.59 6 3631
r 0.128619 0 3 tcp 1540 ------- 0 0.707 3.74 44 3433
+ 0.12921 0 3 tcp 1540 ------- 0 4.55 3.176 8 3190
- 0.129703 0 3 ack 40 ------- 0 9.604 3.1026 0 1871
- 0.129735 0 3 tcp 1540 ---A--- 0 0.707 3.74 25 3716
r 0.129851 0 3 tcp 1540 ------- 0 4.57 3.178 1 2608
- 0.130967 0 3 tcp 1540 ------- 0 4.55 3.176 7 3189
r 0.131083 0 3 tcp 1540 ------- 0 4.57 3.178 2 2609
- 0.132199 0 3 tcp 1540 ------- 0 4.55 3.176 8 3190
r 0.132315 0 3 tcp 1540 ------- 0 0.692 3.59 3 3622
+ 0.133019 0 3 tcp 1540 ------- 0 2.733 3.121 3 2880
- 0.133431 0 3 tcp 1540 ------- 0 2.733 3.121 3 2880
r 0.133547 0 3 tcp 1540 ------- 0 0.692 3.59 4 3623
+ 0.134251 0 3 tcp 1540 ------- 0 2.733 3.121 4 2881
- 0.134663 0 3 tcp 1540 ------- 0 2.733 3.121 4 2881
r 0.134779 0 3 tcp 1540 ------- 0 0.692 3.59 5 3630
+ 0.135483 0 3 tcp 1540 ------- 0 2.733 3.121 5 2920
- 0.135895 0 3 tcp 1540 ------- 0 2.733 3.121 5 2920
r 0.136011 0 3 tcp 1540 ------- 0 0.692 3.59 6 3631
r 0.136043 0 3 ack 40 ------- 0 9.604 3.1026 0 1871
+ 0.136715 0 3 tcp 1540 ------- 0 2.733 3.121 6 2921
- 0.137127 0 3 tcp 1540 ------- 0 2.733 3.121 6 2921
r 0.137275 0 3 tcp 1540 ---A--- 0 0.707 3.74 25 3716
+ 0.137947 0 3 tcp 1540 ------- 0 9.242 3.337 1 1877
- 0.138359 0 3 tcp 1540 ------- 0 9.242 3.337 1 1877
r 0.138507 0 3 tcp 1540 ------- 0 4.55 3.176 7 3189
+ 0.138654 0 3 tcp 1540 ------- 0 0.692 3.59 7 4270
+ 0.138654 0 3 tcp 1540 ------- 0 0.692 3.59 8 4271
+ 0.139418 0 3 tcp 1540 ------- 0 4.55 3.176 9 3700
- 0.139591 0 3 tcp 1540 ------- 0 0.692 3.59 7 4270
r 0.139739 0 3 tcp 1540 ------- 0 4.55 3.176 8 3190
+ 0.139886 0 3 tcp 1540 ------- 0 0.692 3.59 9 4317
+ 0.139886 0 3 tcp 1540 ------- 0 0.692 3.59 10 4318
+ 0.140434 0 3 tcp 40 ------- 0 17.118 3.587 0 4116
+ 0.14065 0 3 tcp 1540 ------- 0 4.55 3.176 10 3701
- 0.140823 0 3 tcp 1540 ------- 0 0.692 3.59 8 4271
r 0.140971 0 3 tcp 1540 ------- 0 2.733 3.121 3 2880
+ 0.141118 0 3 tcp 1540 ------- 0 0.692 3.59 11 4353
+ 0.141118 0 3 tcp 1540 ------- 0 0.692 3.59 12 4354
+ 0.141882 0 3 tcp 1540 ------- 0 4.55 3.176 11 3702
- 0.142055 0 3 tcp 1540 ------- 0 4.55 3.176 9 3700
r 0.142203 0 3 tcp 1540 ------- 0 2.733 3.121 4 2881
+ 0.142341 0 3 tcp 40 ------- 0 1.1107 3.114 0 2926
+ 0.14235 0 3 tcp 1540 ------- 0 0.692 3.59 13 4391
+ 0.14235 0 3 tcp 1540 ------- 0 0.692 3.59 14 4392
d 0.14235 0 3 tcp 1540 ------- 0 0.692 3.59 14 4392
- 0.143287 0 3 tcp 1540 ------- 0 0.692 3.59 9 4317
r 0.143435 0 3 tcp 1540 ------- 0 2.733 3.121 5 2920
- 0.144519 0 3 tcp 1540 ------- 0 0.692 3.59 10 4318
r 0.144667 0 3 tcp 1540 ------- 0 2.733 3.121 6 2921
+ 0.144869 0 3 tcp 1540 ------- 0 1.1088 3.95 3 3023
+ 0.144878 0 3 tcp 1540 ------- 0 0.707 3.74 26 4482
+ 0.144878 0 3 tcp 1540 ------- 0 0.707 3.74 27 4483
d 0.144878 0 3 tcp 1540 ------- 0 0.707 3.74 27 4483
- 0.145751 0 3 tcp 40 ------- 0 17.118 3.587 0 4116
- 0.145783 0 3 tcp 1540 ------- 0 4.55 3.176 10 3701
r 0.145899 0 3 tcp 1540 ------- 0 9.242 3.337 1 1877
+ 0.146101 0 3 tcp 1540 ------- 0 1.1088 3.95 4 3024
- 0.147015 0 3 tcp 1540 ------- 0 0.692 3.59 11 4353
r 0.147131 0 3 tcp 1540 ------- 0 0.692 3.59 7 4270
+ 0.147963 0 3 tcp 1540 ------- 0 9.242 3.337 2 1878
+ 0.148027 0 3 ack 40 ------- 0 9.576 3.998 0 1881
- 0.148247 0 3 tcp 1540 ------- 0 0.692 3.59 12 4354
r 0.148363 0 3 tcp 1540 ------- 0 0.692 3.59 8 4271
- 0.149479 0 3 tcp 1540 ------- 0 4.55 3.176 11 3702
r 0.149595 0 3 tcp 1540 ------- 0 4.55 3.176 9 3700
+ 0.150555 0 3 ack 40 ------- 0 9.575 3.997 0 2028
+ 0.150587 0 3 tcp 40 ------- 0 9.245 3.340 0 2213
- 0.150711 0 3 tcp 40 ------- 0 1.1107 3.114 0 2926
- 0.150743 0 3 tcp 1540 ------- 0 0.692 3.59 13 4391
r 0.150827 0 3 tcp 1540 ------- 0 0.692 3.59 9 4317
- 0.151975 0 3 tcp 1540 ------- 0 1.1088 3.95 3 3023
r 0.152059 0 3 tcp 1540 ------- 0 0.692 3.59 10 4318
r 0.152091 0 3 tcp 40 ------- 0 17.118 3.587 0 4116
+ 0.152357 0 3 ack 40 ------- 0 6.323 3.910 0 2963
- 0.153207 0 3 tcp 1540 ------- 0 0.707 3.74 26 4482
r 0.153323 0 3 tcp 1540 ------- 0 4.55 3.176 10 3701
- 0.154439 0 3 tcp 1540 ------- 0 1.1088 3.95 4 3024
+ 0.154476 0 3 tcp 1540 ------- 0 0.692 3.59 15 4815
+ 0.154476 0 3 tcp 1540 ------- 0 0.692 3.59 16 4816
r 0.154555 0 3 tcp 1540 ------- 0 0.692 3.59 11 4353
+ 0.154702 0 3 tcp 1540 ------- 0 0.692 3.59 17 4834
+ 0.154702 0 3 tcp 1540 ------- 0 0.692 3.59 18 4835
- 0.155671 0 3 tcp 1540 ------- 0 9.242 3.337 2 1878
r 0.155787 0 3 tcp 1540 ------- 0 0.692 3.59 12 4354
- 0.156903 0 3 ack 40 ------- 0 9.576 3.998 0 1881
- 0.156935 0 3 ack 40 ------- 0 9.575 3.997 0 2028
- 0.156967 0 3 tcp 40 ------- 0 9.245 3.340 0 2213
- 0.156999 0 3 ack 40 ------- 0 6.323 3.910 0 2963
r 0.157019 0 3 tcp 1540 ------- 0 4.55 3.176 11 3702
- 0.157031 0 3 tcp 1540 ------- 0 0.692 3.59 15 4815
r 0.157051 0 3 tcp 40 ------- 0 1.1107 3.114 0 2926
+ 0.157166 0 3 tcp 1540 ------- 0 0.692 3.59 19 4923
+ 0.157166 0 3 tcp 1540 ------- 0 0.692 3.59 20 4924
+ 0.157317 0 3 ack 40 ------- 0 6.306 3.893 0 3324
+ 0.157381 0 3 ack 40 ------- 0 6.315 3.902 0 3369
- 0.158263 0 3 tcp 1540 ------- 0 0.692 3.59 16 4816
r 0.158283 0 3 tcp 1540 ------- 0 0.692 3.59 13 4391
+ 0.159404 0 3 tcp 1540 ------- 0 0.692 3.59 21 4983
+ 0.159404 0 3 tcp 1540 ------- 0 0.692 3.59 22 4984
- 0.159495 0 3 tcp 1540 ------- 0 0.692 3.59 17 4834
r 0.159515 0 3 tcp 1540 ------- 0 1.1088 3.95 3 3023
- 0.160727 0 3 tcp 1540 ------- 0 0.692 3.59 18 4835
r 0.160747 0 3 tcp 1540 ------- 0 0.707 3.74 26 4482
+ 0.160842 0 3 tcp 40 ------- 0 15.144 3.468 0 3645
+ 0.160894 0 3 tcp 1540 ------- 0 0.692 3.59 23 5053
+ 0.160894 0 3 tcp 1540 ------- 0 0.692 3.59 24 5054
- 0.161959 0 3 tcp 1540 ------- 0 0.692 3.59 19 4923
r 0.161979 0 3 tcp 1540 ------- 0 1.1088 3.95 4 3024
+ 0.162106 0 3 ack 40 ------- 0 4.241 3.736 1 4266
+ 0.162126 0 3 tcp 1540 ------- 0 0.692 3.59 25 5103
d 0.162126 0 3 tcp 1540 ------- 0 0.692 3.59 25 5103
+ 0.162126 0 3 tcp 1540 ------- 0 0.692 3.59 26 5104
d 0.162126 0 3 tcp 1540 ------- 0 0.692 3.59 26 5104
- 0.163191 0 3 tcp 1540 ------- 0 0.692 3.59 20 4924
r 0.163211 0 3 tcp 1540 ------- 0 9.242 3.337 2 1878
r 0.163243 0 3 ack 40 ------- 0 9.576 3.998 0 1881
r 0.163275 0 3 ack 40 ------- 0 9.575 3.997 0 2028
r 0.163307 0 3 tcp 40 ------- 0 9.245 3.340 0 2213
r 0.163339 0 3 ack 40 ------- 0 6.323 3.910 0 2963
+ 0.163466 0 3 ack 40 ------- 0 4.241 3.736 2 4313
- 0.164423 0 3 ack 40 ------- 0 6.306 3.893 0 3324
- 0.164455 0 3 ack 40 ------- 0 6.315 3.902 0 3369
- 0.164487 0 3 tcp 1540 ------- 0 0.692 3.59 21 4983
r 0.164571 0 3 tcp 1540 ------- 0 0.692 3.59 15 4815
+ 0.16473 0 3 tcp 1540 ------- 0 4.57 3.178 3 4355
+ 0.165055 0 3 tcp 1540 ------- 0 0.692 3.59 27 5220
+ 0.165055 0 3 tcp 1540 ------- 0 0.692 3.59 28 5221
- 0.165719 0 3 tcp 1540 ------- 0 0.692 3.59 22 4984
r 0.165803 0 3 tcp 1540 ------- 0 0.692 3.59 16 4816
+ 0.165962 0 3 tcp 1540 ------- 0 4.57 3.178 4 4356
- 0.166951 0 3 tcp 40 ------- 0 15.144 3.468 0 3645
- 0.166983 0 3 tcp 1540 ------- 0 0.692 3.59 23 5053
r 0.167035 0 3 tcp 1540 ------- 0 0.692 3.59 17 4834
+ 0.167086 0 3 tcp 1540 ------- 0 0.707 3.74 28 5301
+ 0.167086 0 3 tcp 1540 ------- 0 0.707 3.74 29 5302
+ 0.167194 0 3 tcp 1540 ------- 0 4.57 3.178 5 4359
d 0.167194 0 3 tcp 1540 ------- 0 4.57 3.178 5 4359
+ 0.168205 0 3 tcp 40 ------- 0 0.704 3.71 0 5343
d 0.168205 0 3 tcp 40 ------- 0 0.704 3.71 0 5343
- 0.168215 0 3 tcp 1540 ------- 0 0.692 3.59 24 5054
r 0.168267 0 3 tcp 1540 ------- 0 0.692 3.59 18 4835
+ 0.168426 0 3 tcp 1540 ------- 0 4.57 3.178 6 4360
- 0.169447 0 3 ack 40 ------- 0 4.241 3.736 1 4266
- 0.169479 0 3 ack 40 ------- 0 4.241 3.736 2 4313
r 0.169499 0 3 tcp 1540 ------- 0 0.692 3.59 19 4923
- 0.169511 0 3 tcp 1540 ------- 0 4.57 3.178 3 4355
r 0.170731 0 3 tcp 1540 ------- 0 0.692 3.59 20 4924
- 0.170743 0 3 tcp 1540 ------- 0 0.692 3.59 27 5220
r 0.170763 0 3 ack 40 ------- 0 6.306 3.893 0 3324
r 0.170795 0 3 ack 40 ------- 0 6.315 3.902 0 3369
- 0.171975 0 3 tcp 1540 ------- 0 0.692 3.59 28 5221
r 0.172027 0 3 tcp 1540 ------- 0 0.692 3.59 21 4983
+ 0.172154 0 3 tcp 1540 ------- 0 4.55 3.176 12 4586
- 0.173207 0 3 tcp 1540 ------- 0 4.57 3.178 4 4356
r 0.173259 0 3 tcp 1540 ------- 0 0.692 3.59 22 4984
r 0.173291 0 3 tcp 40 ------- 0 15.144 3.468 0 3645
+ 0.173386 0 3 tcp 1540 ------- 0 4.55 3.176 13 4587
- 0.174439 0 3 tcp 1540 ------- 0 0.707 3.74 28 5301
r 0.174523 0 3 tcp 1540 ------- 0 0.692 3.59 23 5053
+ 0.174618 0 3 tcp 1540 ------- 0 4.55 3.176 14 4588
- 0.175671 0 3 tcp 1540 ------- 0 0.707 3.74 29 5302
r 0.175755 0 3 tcp 1540 ------- 0 0.692 3.59 24 5054
r 0.175787 0 3 ack 40 ------- 0 4.241 3.736 1 4266
r 0.175819 0 3 ack 40 ------- 0 4.241 3.736 2 4313
+ 0.175914 0 3 ack 40 ------- 0 14.494 3.1118 0 2944
- 0.176903 0 3 tcp 1540 ------- 0 4.57 3.178 6 4360
r 0.177051 0 3 tcp 1540 ------- 0 4.57 3.178 3 4355
+ 0.177439 0 3 tcp 1540 ------- 0 0.692 3.59 29 5743
+ 0.177471 0 3 tcp 1540 ------- 0 0.692 3.59 30 5744
+ 0.177535 0 3 tcp 1540 ---A--- 0 0.692 3.59 14 5746
- 0.178135 0 3 tcp 1540 ------- 0 4.55 3.176 12 4586
r 0.178283 0 3 tcp 1540 ------- 0 0.692 3.59 27 5220
+ 0.178506 0 3 tcp 1540 ------- 0 4.55 3.176 15 4625
- 0.179367 0 3 tcp 1540 ------- 0 4.55 3.176 13 4587
r 0.179515 0 3 tcp 1540 ------- 0 0.692 3.59 28 5221
+ 0.179738 0 3 tcp 1540 ------- 0 4.55 3.176 16 4626
- 0.180599 0 3 tcp 1540 ------- 0 4.55 3.176 14 4588
r 0.180747 0 3 tcp 1540 ------- 0 4.57 3.178 4 4356
- 0.181831 0 3 ack 40 ------- 0 14.494 3.1118 0 2944
- 0.181863 0 3 tcp 1540 ------- 0 0.692 3.59 29 5743
r 0.181979 0 3 tcp 1540 ------- 0 0.707 3.74 28 5301
- 0.183095 0 3 tcp 1540 ------- 0 0.692 3.59 30 5744
+ 0.183179 0 3 ack 40 ------- 0 18.359 3.1254 0 4860
r 0.183211 0 3 tcp 1540 ------- 0 0.707 3.74 29 5302
- 0.184327 0 3 tcp 1540 ---A--- 0 0.692 3.59 14 5746
r 0.184443 0 3 tcp 1540 ------- 0 4.57 3.178 6 4360
- 0.185559 0 3 tcp 1540 ------- 0 4.55 3.176 15 4625
r 0.185675 0 3 tcp 1540 ------- 0 4.55 3.176 12 4586
- 0.186791 0 3 tcp 1540 ------- 0 4.55 3.176 16 4626
+ 0.186891 0 3 tcp 1540 ------- 0 2.733 3.121 7 4690
r 0.186907 0 3 tcp 1540 ------- 0 4.55 3.176 13 4587
- 0.188023 0 3 ack 40 ------- 0 18.359 3.1254 0 4860
- 0.188055 0 3 tcp 1540 ------- 0 2.733 3.121 7 4690
+ 0.188123 0 3 tcp 1540 ------- 0 2.733 3.121 8 4691
r 0.188139 0 3 tcp 1540 ------- 0 4.55 3.176 14 4588
r 0.188171 0 3 ack 40 ------- 0 14.494 3.1118 0 2944
+ 0.188235 0 3 tcp 1540 ------- 0 17.118 3.587 1 5770
+ 0.188426 0 3 ack 40 ------- 0 15.815 3.1190 0 3838
+ 0.189103 0 3 tcp 1540 ------- 0 0.707 3.74 30 6096
- 0.189287 0 3 tcp 1540 ------- 0 2.733 3.121 8 4691
r 0.189403 0 3 tcp 1540 ------- 0 0.692 3.59 29 5743
+ 0.190399 0 3 tcp 1540 ------- 0 0.707 3.74 31 6158
- 0.190519 0 3 tcp 1540 ------- 0 17.118 3.587 1 5770
r 0.190635 0 3 tcp 1540 ------- 0 0.692 3.59 30 5744
- 0.191751 0 3 ack 40 ------- 0 15.815 3.1190 0 3838
- 0.191783 0 3 tcp 1540 ------- 0 0.707 3.74 30 6096
+ 0.191851 0 3 tcp 1540 ------- 0 2.733 3.121 9 4776
r 0.191867 0 3 tcp 1540 ---A--- 0 0.692 3.59 14 5746
- 0.193015 0 3 tcp 1540 ------- 0 0.707 3.74 31 6158
+ 0.193083 0 3 tcp 1540 ------- 0 2.733 3.121 10 4777
r 0.193099 0 3 tcp 1540 ------- 0 4.55 3.176 15 4625
+ 0.193163 0 3 tcp 1540 ------- 0 17.118 3.587 2 5771
- 0.194247 0 3 tcp 1540 ------- 0 2.733 3.121 9 4776
+ 0.194315 0 3 tcp 1540 ------- 0 2.733 3.121 11 4780
r 0.194331 0 3 tcp 1540 ------- 0 4.55 3.176 16 4626
r 0.194363 0 3 ack 40 ------- 0 18.359 3.1254 0 4860
- 0.195479 0 3 tcp 1540 ------- 0 2.733 3.121 10 4777
+ 0.195547 0 3 tcp 1540 ------- 0 2.733 3.121 12 4781
r 0.195595 0 3 tcp 1540 ------- 0 2.733 3.121 7 4690
+ 0.195946 0 3 tcp 1540 ------- 0 4.55 3.176 17 4952
- 0.196711 0 3 tcp 1540 ------- 0 17.118 3.587 2 5771
r 0.196827 0 3 tcp 1540 ------- 0 2.733 3.121 8 4691
+ 0.197178 0 3 tcp 1540 ------- 0 4.55 3.176 18 4953
- 0.197943 0 3 tcp 1540 ------- 0 2.733 3.121 11 4780
r 0.198059 0 3 tcp 1540 ------- 0 17.118 3.587 1 5770
r 0.198091 0 3 ack 40 ------- 0 15.815 3.1190 0 3838
+ 0.198206 0 3 tcp 1540 ------- 0 0.692 3.59 25 6435
+ 0.198206 0 3 tcp 1540 ------- 0 0.692 3.59 26 6436
- 0.199175 0 3 tcp 1540 ------- 0 2.733 3.121 12 4781
+ 0.199243 0 3 tcp 1540 ------- 0 2.733 3.121 13 4795
r 0.199323 0 3 tcp 1540 ------- 0 0.707 3.74 30 6096
- 0.200407 0 3 tcp 1540 ------- 0 4.55 3.176 17 4952
+ 0.200475 0 3 tcp 1540 ------- 0 2.733 3.121 14 4796
+ 0.200507 0 3 ack 40 ------- 0 11.468 3.1073 0 2596
r 0.200555 0 3 tcp 1540 ------- 0 0.707 3.74 31 6158
- 0.201639 0 3 tcp 1540 ------- 0 4.55 3.176 18 4953
r 0.201787 0 3 tcp 1540 ------- 0 2.733 3.121 9 4776
- 0.202871 0 3 tcp 1540 ------- 0 0.692 3.59 25 6435
r 0.203019 0 3 tcp 1540 ------- 0 2.733 3.121 10 4777
- 0.204103 0 3 tcp 1540 ------- 0 0.692 3.59 26 6436
r 0.204251 0 3 tcp 1540 ------- 0 17.118 3.587 2 5771
- 0.205335 0 3 tcp 1540 ------- 0 2.733 3.121 13 4795
r 0.205483 0 3 tcp 1540 ------- 0 2.733 3.121 11 4780
- 0.206567 0 3 tcp 1540 ------- 0 2.733 3.121 14 4796
r 0.206715 0 3 tcp 1540 ------- 0 2.733 3.121 12 4781
- 0.207799 0 3 ack 40 ------- 0 11.468 3.1073 0 2596
r 0.207947 0 3 tcp 1540 ------- 0 4.55 3.176 17 4952
+ 0.208843 0 3 ack 40 ------- 0 17.559 3.1240 0 6172
- 0.208843 0 3 ack 40 ------- 0 17.559 3.1240 0 6172
r 0.209179 0 3 tcp 1540 ------- 0 4.55 3.176 18 4953
r 0.210411 0 3 tcp 1540 ------- 0 0.692 3.59 25 6435
r 0.211643 0 3 tcp 1540 ------- 0 0.692 3.59 26 6436
r 0.212875 0 3 tcp 1540 ------- 0 2.733 3.121 13 4795
r 0.214107 0 3 tcp 1540 ------- 0 2.733 3.121 14 4796
r 0.214139 0 3 ack 40 ------- 0 11.468 3.1073 0 2596
r 0.215182 0 3 ack 40 ------- 0 17.559 3.1240 0 6172
+ 0.215605 0 3 tcp 1540 ------- 0 1.1107 3.114 1 5236
- 0.215605 0 3 tcp 1540 ------- 0 1.1107 3.114 1 5236
+ 0.216266 0 3 ack 40 ------- 0 14.500 3.1124 0 5226
+ 0.216298 0 3 ack 40 ------- 0 14.529 3.1153 0 5229
+ 0.21675 0 3 tcp 1540 ------- 0 0.692 3.59 27 7113
+ 0.21675 0 3 tcp 1540 ------- 0 0.692 3.59 28 7114
+ 0.216837 0 3 tcp 1540 ------- 0 1.1107 3.114 2 5237
- 0.216837 0 3 ack 40 ------- 0 14.500 3.1124 0 5226
- 0.216869 0 3 ack 40 ------- 0 14.529 3.1153 0 5229
- 0.216901 0 3 tcp 1540 ------- 0 0.692 3.59 27 7113
+ 0.217982 0 3 tcp 1540 ------- 0 0.692 3.59 31 7147
+ 0.217982 0 3 tcp 1540 ------- 0 0.692 3.59 32 7148
+ 0.217982 0 3 tcp 1540 ------- 0 0.692 3.59 33 7149
+ 0.217982 0 3 tcp 1540 ------- 0 0.692 3.59 34 7150
- 0.218133 0 3 tcp 1540 ------- 0 0.692 3.59 28 7114
+ 0.219301 0 3 tcp 1540 ------- 0 1.1088 3.95 7 5329
- 0.219365 0 3 tcp 1540 ------- 0 1.1107 3.114 2 5237
+ 0.220565 0 3 tcp 1540 ------- 0 1.1088 3.95 9 5424
- 0.220597 0 3 tcp 1540 ------- 0 0.692 3.59 31 7147
- 0.221829 0 3 tcp 1540 ------- 0 0.692 3.59 32 7148
- 0.223061 0 3 tcp 1540 ------- 0 0.692 3.59 33 7149
r 0.223145 0 3 tcp 1540 ------- 0 1.1107 3.114 1 5236
r 0.223177 0 3 ack 40 ------- 0 14.500 3.1124 0 5226
r 0.223209 0 3 ack 40 ------- 0 14.529 3.1153 0 5229
- 0.224293 0 3 tcp 1540 ------- 0 0.692 3.59 34 7150
r 0.224441 0 3 tcp 1540 ------- 0 0.692 3.59 27 7113
- 0.225525 0 3 tcp 1540 ------- 0 1.1088 3.95 7 5329
r 0.225673 0 3 tcp 1540 ------- 0 0.692 3.59 28 7114
- 0.226757 0 3 tcp 1540 ------- 0 1.1088 3.95 9 5424
r 0.226905 0 3 tcp 1540 ------- 0 1.1107 3.114 2 5237
r 0.228137 0 3 tcp 1540 ------- 0 0.692 3.59 31 7147
r 0.229369 0 3 tcp 1540 ------- 0 0.692 3.59 32 7148
r 0.230601 0 3 tcp 1540 ------- 0 0.692 3.59 33 7149
+ 0.230781 0 3 tcp 1540 ------- 0 0.692 3.59 35 7609
- 0.230781 0 3 tcp 1540 ------- 0 0.692 3.59 35 7609
r 0.231833 0 3 tcp 1540 ------- 0 0.692 3.59 34 7150
+ 0.232013 0 3 tcp 1540 ------- 0 0.692 3.59 36 7661
- 0.232013 0 3 tcp 1540 ------- 0 0.692 3.59 36 7661
r 0.233065 0 3 tcp 1540 ------- 0 1.1088 3.95 7 5329
+ 0.233339 0 3 ack 40 ------- 0 9.538 3.960 0 4550
- 0.233339 0 3 ack 40 ------- 0 9.538 3.960 0 4550
+ 0.233834 0 3 tcp 1540 ------- 0 4.55 3.176 23 6505
- 0.233834 0 3 tcp 1540 ------- 0 4.55 3.176 23 6505
r 0.234297 0 3 tcp 1540 ------- 0 1.1088 3.95 9 5424
+ 0.235066 0 3 tcp 1540 ------- 0 4.55 3.176 25 6507
- 0.235066 0 3 tcp 1540 ------- 0 4.55 3.176 25 6507
+ 0.235709 0 3 tcp 1540 ------- 0 0.692 3.59 37 7782
+ 0.235709 0 3 tcp 1540 ------- 0 0.692 3.59 38 7783
- 0.236298 0 3 tcp 1540 ------- 0 0.692 3.59 37 7782
+ 0.236458 0 3 tcp 1540 ------- 0 4.55 3.176 29 6720
+ 0.236941 0 3 tcp 1540 ------- 0 0.692 3.59 39 7824
+ 0.236941 0 3 tcp 1540 ------- 0 0.692 3.59 40 7825
- 0.23753 0 3 tcp 1540 ------- 0 0.692 3.59 38 7783
+ 0.23769 0 3 tcp 1540 ------- 0 4.55 3.176 30 6721
+ 0.238173 0 3 tcp 1540 ------- 0 0.692 3.59 41 7871
r 0.23832 0 3 tcp 1540 ------- 0 0.692 3.59 35 7609
- 0.238762 0 3 tcp 1540 ------- 0 4.55 3.176 29 6720
+ 0.238922 0 3 tcp 1540 ------- 0 4.55 3.176 31 6722