+ 0.002645 4 15 rtProtoDV 26 ------- 0 4.1386 15.1521 -1 32
- 0.002645 4 15 rtProtoDV 26 ------- 0 4.1386 15.1521 -1 32
+ 0.005685 4 15 rtProtoDV 26 ------- 0 4.1386 15.1521 -1 109
- 0.005685 4 15 rtProtoDV 26 ------- 0 4.1386 15.1521 -1 109
+ 0.005971 4 15 rtProtoDV 26 ------- 0 4.1386 15.1521 -1 124
- 0.005971 4 15 rtProtoDV 26 ------- 0 4.1386 15.1521 -1 124
+ 0.006804 4 15 rtProtoDV 26 ------- 0 4.1386 15.1521 -1 149
- 0.006804 4 15 rtProtoDV 26 ------- 0 4.1386 15.1521 -1 149
r 0.007482 4 15 rtProtoDV 26 ------- 0 4.1386 15.1521 -1 32
+ 0.008416 4 15 rtProtoDV 26 ------- 0 4.1386 15.1521 -1 227
- 0.008416 4 15 rtProtoDV 26 ------- 0 4.1386 15.1521 -1 227
r 0.010521 4 15 rtProtoDV 26 ------- 0 4.1386 15.1521 -1 109
r 0.010808 4 15 rtProtoDV 26 ------- 0 4.1386 15.1521 -1 124
r 0.01164 4 15 rtProtoDV 26 ------- 0 4.1386 15.1521 -1 149
+ 0.012318 4 15 rtProtoDV 26 ------- 0 4.1386 15.1521 -1 438
- 0.012318 4 15 rtProtoDV 26 ------- 0 4.1386 15.1521 -1 438
r 0.013253 4 15 rtProtoDV 26 ------- 0 4.1386 15.1521 -1 227
+ 0.013388 4 15 rtProtoDV 26 ------- 0 4.1386 15.1521 -1 488
- 0.013388 4 15 rtProtoDV 26 ------- 0 4.1386 15.1521 -1 488
+ 0.014486 4 15 tcp 40 ------- 0 1.1703 15.686 0 285
- 0.014486 4 15 tcp 40 ------- 0 1.1703 15.686 0 285
+ 0.014583 4 15 rtProtoDV 26 ------- 0 4.1386 15.1521 -1 548
- 0.014583 4 15 rtProtoDV 26 ------- 0 4.1386 15.1521 -1 548
r 0.017155 4 15 rtProtoDV 26 ------- 0 4.1386 15.1521 -1 438
r 0.018224 4 15 rtProtoDV 26 ------- 0 4.1386 15.1521 -1 488
+ 0.018752 4 15 tcp 40 ------- 0 4.1055 13.611 0 706
- 0.018752 4 15 tcp 40 ------- 0 4.1055 13.611 0 706
+ 0.019198 4 15 ack 40 ------- 0 5.729 15.218 0 663
- 0.019198 4 15 ack 40 ------- 0 5.729 15.218 0 663
r 0.019334 4 15 tcp 40 ------- 0 1.1703 15.686 0 285
r 0.01942 4 15 rtProtoDV 26 ------- 0 4.1386 15.1521 -1 548
+ 0.019847 4 15 tcp 40 ------- 0 2.1067 15.785 0 538
- 0.019847 4 15 tcp 40 ------- 0 2.1067 15.785 0 538
+ 0.022203 4 15 tcp 40 ------- 0 0.1125 14.358 0 744
- 0.022203 4 15 tcp 40 ------- 0 0.1125 14.358 0 744
r 0.0236 4 15 tcp 40 ------- 0 4.1055 13.611 0 706
+ 0.02403 4 15 tcp 40 ------- 0 5.1219 11.567 0 814
- 0.02403 4 15 tcp 40 ------- 0 5.1219 11.567 0 814
r 0.024046 4 15 ack 40 ------- 0 5.729 15.218 0 663
r 0.024695 4 15 tcp 40 ------- 0 2.1067 15.785 0 538
r 0.02705 4 15 tcp 40 ------- 0 0.1125 14.358 0 744
+ 0.028384 4 15 tcp 40 ------- 0 0.1114 14.347 0 891
- 0.028384 4 15 tcp 40 ------- 0 0.1114 14.347 0 891
r 0.028878 4 15 tcp 40 ------- 0 5.1219 11.567 0 814
+ 0.028965 4 15 tcp 40 ------- 0 18.269 15.1098 0 848
- 0.028965 4 15 tcp 40 ------- 0 18.269 15.1098 0 848
+ 0.031752 4 15 tcp 40 ------- 0 5.1264 11.612 0 998
- 0.031752 4 15 tcp 40 ------- 0 5.1264 11.612 0 998
r 0.033232 4 15 tcp 40 ------- 0 0.1114 14.347 0 891
r 0.033812 4 15 tcp 40 ------- 0 18.269 15.1098 0 848
+ 0.034355 4 15 ack 40 ------- 0 5.729 15.218 1 1061
- 0.034355 4 15 ack 40 ------- 0 5.729 15.218 1 1061
+ 0.034391 4 15 tcp 40 ------- 0 4.1047 13.603 0 1093
- 0.034391 4 15 tcp 40 ------- 0 4.1047 13.603 0 1093
+ 0.035386 4 15 tcp 40 ------- 0 0.1096 14.329 0 1063
- 0.035386 4 15 tcp 40 ------- 0 0.1096 14.329 0 1063
+ 0.035587 4 15 ack 40 ------- 0 5.729 15.218 2 1086
- 0.035587 4 15 ack 40 ------- 0 5.729 15.218 2 1086
r 0.0366 4 15 tcp 40 ------- 0 5.1264 11.612 0 998
+ 0.03664 4 15 tcp 40 ------- 0 2.989 15.707 0 949
- 0.03664 4 15 tcp 40 ------- 0 2.989 15.707 0 949
+ 0.037394 4 15 tcp 40 ------- 0 0.1018 13.388 0 1099
- 0.037394 4 15 tcp 40 ------- 0 0.1018 13.388 0 1099
+ 0.038083 4 15 tcp 40 ------- 0 3.1111 12.406 0 920
- 0.038083 4 15 tcp 40 ------- 0 3.1111 12.406 0 920
+ 0.039168 4 15 tcp 40 ------- 0 2.1044 15.762 0 1034
- 0.039168 4 15 tcp 40 ------- 0 2.1044 15.762 0 1034
r 0.039203 4 15 ack 40 ------- 0 5.729 15.218 1 1061
r 0.039239 4 15 tcp 40 ------- 0 4.1047 13.603 0 1093
+ 0.039686 4 15 tcp 40 ------- 0 17.365 12.732 0 1122
- 0.039686 4 15 tcp 40 ------- 0 17.365 12.732 0 1122
+ 0.04008 4 15 ack 40 ------- 0 4.423 11.169 0 1238
- 0.04008 4 15 ack 40 ------- 0 4.423 11.169 0 1238
r 0.040234 4 15 tcp 40 ------- 0 0.1096 14.329 0 1063
r 0.040435 4 15 ack 40 ------- 0 5.729 15.218 2 1086
+ 0.041129 4 15 tcp 1540 ------- 0 4.1055 13.611 1 1257
- 0.041129 4 15 tcp 1540 ------- 0 4.1055 13.611 1 1257
+ 0.041129 4 15 tcp 1540 ------- 0 4.1055 13.611 2 1258
r 0.041488 4 15 tcp 40 ------- 0 2.989 15.707 0 949
+ 0.041652 4 15 tcp 1540 ------- 0 0.1125 14.358 1 1180
r 0.042242 4 15 tcp 40 ------- 0 0.1018 13.388 0 1099
- 0.042361 4 15 tcp 1540 ------- 0 4.1055 13.611 2 1258
+ 0.042884 4 15 tcp 1540 ------- 0 0.1125 14.358 2 1181
r 0.042931 4 15 tcp 40 ------- 0 3.1111 12.406 0 920
+ 0.04298 4 15 ack 40 ------- 0 17.953 13.1308 0 1178
+ 0.043012 4 15 tcp 40 ------- 0 0.1051 13.421 0 1243
- 0.043593 4 15 tcp 1540 ------- 0 0.1125 14.358 1 1180
r 0.044016 4 15 tcp 40 ------- 0 2.1044 15.762 0 1034
r 0.044534 4 15 tcp 40 ------- 0 17.365 12.732 0 1122
- 0.044825 4 15 tcp 1540 ------- 0 0.1125 14.358 2 1181
r 0.044928 4 15 ack 40 ------- 0 4.423 11.169 0 1238
+ 0.045437 4 15 tcp 1540 ------- 0 1.1703 15.686 1 958
+ 0.045533 4 15 ack 40 ------- 0 17.970 13.1325 0 1251
- 0.046057 4 15 ack 40 ------- 0 17.953 13.1308 0 1178
- 0.046089 4 15 tcp 40 ------- 0 0.1051 13.421 0 1243
- 0.046121 4 15 tcp 1540 ------- 0 1.1703 15.686 1 958
+ 0.046765 4 15 tcp 1540 ------- 0 1.1703 15.686 2 959
r 0.047177 4 15 tcp 1540 ------- 0 4.1055 13.611 1 1257
- 0.047353 4 15 ack 40 ------- 0 17.970 13.1325 0 1251
- 0.047385 4 15 tcp 1540 ------- 0 1.1703 15.686 2 959
+ 0.048024 4 15 tcp 40 ------- 0 5.1340 14.615 0 1271
+ 0.048029 4 15 tcp 1540 ------- 0 2.1067 15.785 1 1158
+ 0.048061 4 15 ack 40 ------- 0 17.1015 13.1370 0 1283
r 0.048409 4 15 tcp 1540 ------- 0 4.1055 13.611 2 1258
- 0.048617 4 15 tcp 40 ------- 0 5.1340 14.615 0 1271
- 0.048649 4 15 tcp 1540 ------- 0 2.1067 15.785 1 1158
+ 0.049325 4 15 tcp 1540 ------- 0 0.1114 14.347 1 1340
r 0.049641 4 15 tcp 1540 ------- 0 0.1125 14.358 1 1180
- 0.049881 4 15 ack 40 ------- 0 17.1015 13.1370 0 1283
- 0.049913 4 15 tcp 1540 ------- 0 0.1114 14.347 1 1340
+ 0.050557 4 15 tcp 1540 ------- 0 0.1114 14.347 2 1341
r 0.050873 4 15 tcp 1540 ------- 0 0.1125 14.358 2 1181
r 0.050905 4 15 ack 40 ------- 0 17.953 13.1308 0 1178
r 0.050937 4 15 tcp 40 ------- 0 0.1051 13.421 0 1243
- 0.051145 4 15 tcp 1540 ------- 0 0.1114 14.347 2 1341
+ 0.051789 4 15 tcp 1540 ------- 0 2.1067 15.785 2 1159
+ 0.051821 4 15 tcp 40 ------- 0 0.994 13.364 0 1367
+ 0.051853 4 15 ack 40 ------- 0 1.563 12.47 0 964
r 0.052169 4 15 tcp 1540 ------- 0 1.1703 15.686 1 958
r 0.052201 4 15 ack 40 ------- 0 17.970 13.1325 0 1251
- 0.052377 4 15 tcp 1540 ------- 0 2.1067 15.785 2 1159
+ 0.053016 4 15 ack 40 ------- 0 5.729 15.218 3 1428
r 0.053433 4 15 tcp 1540 ------- 0 1.1703 15.686 2 959
r 0.053465 4 15 tcp 40 ------- 0 5.1340 14.615 0 1271
- 0.053609 4 15 tcp 40 ------- 0 0.994 13.364 0 1367
- 0.053641 4 15 ack 40 ------- 0 1.563 12.47 0 964
- 0.053673 4 15 ack 40 ------- 0 5.729 15.218 3 1428
+ 0.054509 4 15 tcp 40 ------- 0 0.1104 14.337 0 1468
- 0.054509 4 15 tcp 40 ------- 0 0.1104 14.337 0 1468
+ 0.054541 4 15 tcp 40 ------- 0 19.354 12.799 0 1356
- 0.054541 4 15 tcp 40 ------- 0 19.354 12.799 0 1356
r 0.054697 4 15 tcp 1540 ------- 0 2.1067 15.785 1 1158
r 0.054729 4 15 ack 40 ------- 0 17.1015 13.1370 0 1283
+ 0.055512 4 15 ack 40 ------- 0 5.729 15.218 4 1461
- 0.055512 4 15 ack 40 ------- 0 5.729 15.218 4 1461
r 0.055961 4 15 tcp 1540 ------- 0 0.1114 14.347 1 1340
r 0.057193 4 15 tcp 1540 ------- 0 0.1114 14.347 2 1341
+ 0.058008 4 15 ack 40 ------- 0 21.810 15.1371 0 1095
- 0.058008 4 15 ack 40 ------- 0 21.810 15.1371 0 1095
+ 0.05804 4 15 ack 40 ------- 0 5.729 15.218 5 1494
- 0.05804 4 15 ack 40 ------- 0 5.729 15.218 5 1494
r 0.058425 4 15 tcp 1540 ------- 0 2.1067 15.785 2 1159
r 0.058457 4 15 tcp 40 ------- 0 0.994 13.364 0 1367
r 0.058489 4 15 ack 40 ------- 0 1.563 12.47 0 964
r 0.058521 4 15 ack 40 ------- 0 5.729 15.218 3 1428
+ 0.059053 4 15 tcp 40 ------- 0 1.1582 15.565 0 1032
- 0.059053 4 15 tcp 40 ------- 0 1.1582 15.565 0 1032
r 0.059357 4 15 tcp 40 ------- 0 0.1104 14.337 0 1468
r 0.059389 4 15 tcp 40 ------- 0 19.354 12.799 0 1356
+ 0.060349 4 15 ack 40 ------- 0 1.601 15.63 0 1060
- 0.060349 4 15 ack 40 ------- 0 1.601 15.63 0 1060
r 0.06036 4 15 ack 40 ------- 0 5.729 15.218 4 1461
+ 0.060568 4 15 ack 40 ------- 0 5.729 15.218 6 1529
- 0.060568 4 15 ack 40 ------- 0 5.729 15.218 6 1529
+ 0.0606 4 15 ack 40 ------- 0 5.517 11.197 0 1530
- 0.0606 4 15 ack 40 ------- 0 5.517 11.197 0 1530
r 0.062856 4 15 ack 40 ------- 0 21.810 15.1371 0 1095
r 0.062888 4 15 ack 40 ------- 0 5.729 15.218 5 1494
r 0.063901 4 15 tcp 40 ------- 0 1.1582 15.565 0 1032
+ 0.06461 4 15 tcp 40 ------- 0 19.379 15.1133 0 1652
- 0.06461 4 15 tcp 40 ------- 0 19.379 15.1133 0 1652
r 0.065197 4 15 ack 40 ------- 0 1.601 15.63 0 1060
r 0.065416 4 15 ack 40 ------- 0 5.729 15.218 6 1529
r 0.065448 4 15 ack 40 ------- 0 5.517 11.197 0 1530
+ 0.065842 4 15 tcp 1540 ------- 0 0.1096 14.329 1 1769
- 0.065842 4 15 tcp 1540 ------- 0 0.1096 14.329 1 1769
+ 0.067074 4 15 tcp 1540 ------- 0 0.1096 14.329 2 1770
- 0.067074 4 15 tcp 1540 ------- 0 0.1096 14.329 2 1770
+ 0.067106 4 15 tcp 40 ------- 0 0.1086 13.456 0 1800
- 0.068306 4 15 tcp 40 ------- 0 0.1086 13.456 0 1800
r 0.069458 4 15 tcp 40 ------- 0 19.379 15.1133 0 1652
+ 0.06973 4 15 ack 40 ------- 0 17.819 12.988 0 1644
- 0.06973 4 15 ack 40 ------- 0 17.819 12.988 0 1644
+ 0.069826 4 15 tcp 40 ------- 0 19.429 15.1183 0 1823
- 0.069826 4 15 tcp 40 ------- 0 19.429 15.1183 0 1823
+ 0.069858 4 15 tcp 40 ------- 0 1.1299 12.310 0 1157
- 0.069858 4 15 tcp 40 ------- 0 1.1299 12.310 0 1157
r 0.07189 4 15 tcp 1540 ------- 0 0.1096 14.329 1 1769
+ 0.07197 4 15 tcp 40 ------- 0 1.1355 12.366 0 1173
- 0.07197 4 15 tcp 40 ------- 0 1.1355 12.366 0 1173
r 0.073122 4 15 tcp 1540 ------- 0 0.1096 14.329 2 1770
r 0.073154 4 15 tcp 40 ------- 0 0.1086 13.456 0 1800
+ 0.074216 4 15 tcp 40 ------- 0 5.1368 14.643 0 1825
- 0.074216 4 15 tcp 40 ------- 0 5.1368 14.643 0 1825
+ 0.074248 4 15 tcp 40 ------- 0 5.1192 11.540 0 1841
- 0.074248 4 15 tcp 40 ------- 0 5.1192 11.540 0 1841
+ 0.07428 4 15 ack 40 ------- 0 5.729 15.218 7 1949
- 0.07428 4 15 ack 40 ------- 0 5.729 15.218 7 1949
+ 0.074344 4 15 ack 40 ------- 0 5.729 15.218 8 2042
- 0.074344 4 15 ack 40 ------- 0 5.729 15.218 8 2042
+ 0.07444 4 15 ack 40 ------- 0 5.729 15.218 9 2077
- 0.07444 4 15 ack 40 ------- 0 5.729 15.218 9 2077
r 0.074578 4 15 ack 40 ------- 0 17.819 12.988 0 1644
r 0.074674 4 15 tcp 40 ------- 0 19.429 15.1183 0 1823
r 0.074706 4 15 tcp 40 ------- 0 1.1299 12.310 0 1157
+ 0.075666 4 15 tcp 40 ------- 0 1.1381 13.477 0 1214
- 0.075666 4 15 tcp 40 ------- 0 1.1381 13.477 0 1214
r 0.076818 4 15 tcp 40 ------- 0 1.1355 12.366 0 1173
+ 0.078377 4 15 tcp 1540 ------- 0 4.1047 13.603 1 2333
- 0.078377 4 15 tcp 1540 ------- 0 4.1047 13.603 1 2333
+ 0.078377 4 15 tcp 1540 ------- 0 4.1047 13.603 2 2334
+ 0.078473 4 15 tcp 1540 ------- 0 4.1055 13.611 3 2340
+ 0.078473 4 15 tcp 1540 ------- 0 4.1055 13.611 4 2341
+ 0.078957 4 15 ack 40 ------- 0 17.999 13.1354 0 1820
+ 0.078989 4 15 ack 40 ------- 0 17.1079 14.1363 0 1824
r 0.079064 4 15 tcp 40 ------- 0 5.1368 14.643 0 1825
+ 0.079085 4 15 tcp 40 ------- 0 1.1318 12.329 0 1274
r 0.079096 4 15 tcp 40 ------- 0 5.1192 11.540 0 1841
r 0.079128 4 15 ack 40 ------- 0 5.729 15.218 7 1949
+ 0.079149 4 15 ack 40 ------- 0 16.694 14.1305 0 1204
r 0.079192 4 15 ack 40 ------- 0 5.729 15.218 8 2042
r 0.079288 4 15 ack 40 ------- 0 5.729 15.218 9 2077
+ 0.0794 4 15 ack 40 ------- 0 5.729 15.218 10 2134
- 0.079609 4 15 tcp 1540 ------- 0 4.1047 13.603 2 2334
r 0.080514 4 15 tcp 40 ------- 0 1.1381 13.477 0 1214
- 0.080841 4 15 tcp 1540 ------- 0 4.1055 13.611 3 2340
- 0.082073 4 15 tcp 1540 ------- 0 4.1055 13.611 4 2341
- 0.083305 4 15 ack 40 ------- 0 17.999 13.1354 0 1820
- 0.083337 4 15 ack 40 ------- 0 17.1079 14.1363 0 1824
- 0.083369 4 15 tcp 40 ------- 0 1.1318 12.329 0 1274
- 0.083401 4 15 ack 40 ------- 0 16.694 14.1305 0 1204
- 0.083433 4 15 ack 40 ------- 0 5.729 15.218 10 2134
+ 0.084008 4 15 tcp 1540 ------- 0 18.269 15.1098 1 1772
- 0.084008 4 15 tcp 1540 ------- 0 18.269 15.1098 1 1772
+ 0.08404 4 15 tcp 40 ------- 0 17.340 12.707 0 2012
r 0.084424 4 15 tcp 1540 ------- 0 4.1047 13.603 1 2333
+ 0.084548 4 15 tcp 40 ------- 0 4.1060 13.616 0 2541
- 0.08524 4 15 tcp 40 ------- 0 17.340 12.707 0 2012
- 0.085272 4 15 tcp 40 ------- 0 4.1060 13.616 0 2541
r 0.085656 4 15 tcp 1540 ------- 0 4.1047 13.603 2 2334
r 0.086888 4 15 tcp 1540 ------- 0 4.1055 13.611 3 2340
r 0.08812 4 15 tcp 1540 ------- 0 4.1055 13.611 4 2341
r 0.088152 4 15 ack 40 ------- 0 17.999 13.1354 0 1820
+ 0.088184 4 15 tcp 40 ------- 0 22.367 12.894 0 1626
- 0.088184 4 15 tcp 40 ------- 0 22.367 12.894 0 1626
r 0.088184 4 15 ack 40 ------- 0 17.1079 14.1363 0 1824
+ 0.088216 4 15 ack 40 ------- 0 5.729 15.218 11 2217
- 0.088216 4 15 ack 40 ------- 0 5.729 15.218 11 2217
r 0.088216 4 15 tcp 40 ------- 0 1.1318 12.329 0 1274
+ 0.088248 4 15 tcp 40 ------- 0 5.1252 11.600 0 2239
- 0.088248 4 15 tcp 40 ------- 0 5.1252 11.600 0 2239
r 0.088248 4 15 ack 40 ------- 0 16.694 14.1305 0 1204
+ 0.08828 4 15 ack 40 ------- 0 5.729 15.218 12 2254
- 0.08828 4 15 ack 40 ------- 0 5.729 15.218 12 2254
r 0.08828 4 15 ack 40 ------- 0 5.729 15.218 10 2134
+ 0.089218 4 15 tcp 1540 ------- 0 18.269 15.1098 2 1773
- 0.089218 4 15 tcp 1540 ------- 0 18.269 15.1098 2 1773
+ 0.089544 4 15 tcp 40 ------- 0 3.1118 14.494 0 1750
r 0.090056 4 15 tcp 1540 ------- 0 18.269 15.1098 1 1772
r 0.090088 4 15 tcp 40 ------- 0 17.340 12.707 0 2012
r 0.09012 4 15 tcp 40 ------- 0 4.1060 13.616 0 2541
- 0.09045 4 15 tcp 40 ------- 0 3.1118 14.494 0 1750
+ 0.09084 4 15 ack 40 ------- 0 5.729 15.218 13 2395
- 0.09084 4 15 ack 40 ------- 0 5.729 15.218 13 2395
+ 0.090872 4 15 ack 40 ------- 0 5.729 15.218 14 2436
- 0.090872 4 15 ack 40 ------- 0 5.729 15.218 14 2436
+ 0.090904 4 15 tcp 40 ------- 0 5.1379 14.654 0 2458
- 0.090904 4 15 tcp 40 ------- 0 5.1379 14.654 0 2458
+ 0.090936 4 15 tcp 40 ------- 0 3.1125 14.501 0 1970
- 0.090936 4 15 tcp 40 ------- 0 3.1125 14.501 0 1970
+ 0.092946 4 15 tcp 1540 ------- 0 2.989 15.707 1 1707
- 0.092946 4 15 tcp 1540 ------- 0 2.989 15.707 1 1707
+ 0.092978 4 15 tcp 40 ------- 0 19.420 15.1174 0 2585
r 0.093032 4 15 tcp 40 ------- 0 22.367 12.894 0 1626
r 0.093064 4 15 ack 40 ------- 0 5.729 15.218 11 2217
r 0.093096 4 15 tcp 40 ------- 0 5.1252 11.600 0 2239
r 0.093128 4 15 ack 40 ------- 0 5.729 15.218 12 2254
+ 0.093432 4 15 ack 40 ------- 0 5.746 15.235 0 2562
+ 0.093496 4 15 ack 40 ------- 0 5.729 15.218 15 2657
- 0.094178 4 15 tcp 40 ------- 0 19.420 15.1174 0 2585
+ 0.09421 4 15 tcp 1540 ------- 0 2.989 15.707 2 1708
- 0.09421 4 15 ack 40 ------- 0 5.746 15.235 0 2562
- 0.094242 4 15 ack 40 ------- 0 5.729 15.218 15 2657
- 0.094274 4 15 tcp 1540 ------- 0 2.989 15.707 2 1708
r 0.095266 4 15 tcp 1540 ------- 0 18.269 15.1098 2 1773
r 0.095298 4 15 tcp 40 ------- 0 3.1118 14.494 0 1750
+ 0.095442 4 15 tcp 1540 ------- 0 17.365 12.732 1 2442
- 0.095506 4 15 tcp 1540 ------- 0 17.365 12.732 1 2442
r 0.095688 4 15 ack 40 ------- 0 5.729 15.218 13 2395
r 0.09572 4 15 ack 40 ------- 0 5.729 15.218 14 2436
r 0.095752 4 15 tcp 40 ------- 0 5.1379 14.654 0 2458
r 0.095784 4 15 tcp 40 ------- 0 3.1125 14.501 0 1970
+ 0.095992 4 15 ack 40 ------- 0 5.729 15.218 16 2704
+ 0.096024 4 15 ack 40 ------- 0 5.729 15.218 17 2754
+ 0.096088 4 15 ack 40 ------- 0 5.729 15.218 18 2787
+ 0.09612 4 15 ack 40 ------- 0 5.729 15.218 19 2819
+ 0.096152 4 15 ack 40 ------- 0 5.729 15.218 20 2851
+ 0.096674 4 15 tcp 1540 ------- 0 2.1044 15.762 1 1711
+ 0.096706 4 15 tcp 40 ------- 0 19.373 15.1127 0 2621
- 0.096738 4 15 ack 40 ------- 0 5.729 15.218 16 2704
- 0.09677 4 15 ack 40 ------- 0 5.729 15.218 17 2754
- 0.096802 4 15 ack 40 ------- 0 5.729 15.218 18 2787
- 0.096834 4 15 ack 40 ------- 0 5.729 15.218 19 2819
- 0.096866 4 15 ack 40 ------- 0 5.729 15.218 20 2851
- 0.096898 4 15 tcp 1540 ------- 0 2.1044 15.762 1 1711
+ 0.097938 4 15 tcp 1540 ------- 0 2.1044 15.762 2 1712
+ 0.098034 4 15 tcp 40 ------- 0 2.998 15.716 0 1720
- 0.09813 4 15 tcp 40 ------- 0 19.373 15.1127 0 2621
- 0.098162 4 15 tcp 1540 ------- 0 2.1044 15.762 2 1712
+ 0.09859 4 15 ack 40 ------- 0 5.729 15.218 21 2941
r 0.098994 4 15 tcp 1540 ------- 0 2.989 15.707 1 1707
r 0.099026 4 15 tcp 40 ------- 0 19.420 15.1174 0 2585
r 0.099058 4 15 ack 40 ------- 0 5.746 15.235 0 2562
r 0.09909 4 15 ack 40 ------- 0 5.729 15.218 15 2657
+ 0.099266 4 15 tcp 1540 ------- 0 17.365 12.732 2 2443
+ 0.099298 4 15 ack 40 ------- 0 17.1131 15.1282 0 2446
+ 0.099394 4 15 tcp 40 ------- 0 0.1062 13.432 0 2904
- 0.099394 4 15 tcp 40 ------- 0 2.998 15.716 0 1720
- 0.099426 4 15 ack 40 ------- 0 5.729 15.218 21 2941
- 0.099458 4 15 tcp 1540 ------- 0 17.365 12.732 2 2443
+ 0.099822 4 15 ack 40 ------- 0 5.729 15.218 22 2992
r 0.100322 4 15 tcp 1540 ------- 0 2.989 15.707 2 1708
+ 0.100621 4 15 tcp 40 ------- 0 17.317 12.684 0 2917
- 0.10069 4 15 ack 40 ------- 0 17.1131 15.1282 0 2446
- 0.100722 4 15 tcp 40 ------- 0 0.1062 13.432 0 2904
- 0.100754 4 15 ack 40 ------- 0 5.729 15.218 22 2992
- 0.100786 4 15 tcp 40 ------- 0 17.317 12.684 0 2917
+ 0.101054 4 15 tcp 1540 ------- 0 5.1264 11.612 1 2996
- 0.101054 4 15 tcp 1540 ------- 0 5.1264 11.612 1 2996
r 0.101554 4 15 tcp 1540 ------- 0 17.365 12.732 1 2442
r 0.101586 4 15 ack 40 ------- 0 5.729 15.218 16 2704
r 0.101618 4 15 ack 40 ------- 0 5.729 15.218 17 2754
r 0.10165 4 15 ack 40 ------- 0 5.729 15.218 18 2787
r 0.101682 4 15 ack 40 ------- 0 5.729 15.218 19 2819
r 0.101714 4 15 ack 40 ------- 0 5.729 15.218 20 2851
+ 0.102286 4 15 tcp 1540 ------- 0 5.1264 11.612 2 2997
- 0.102286 4 15 tcp 1540 ------- 0 5.1264 11.612 2 2997
r 0.102946 4 15 tcp 1540 ------- 0 2.1044 15.762 1 1711
r 0.102978 4 15 tcp 40 ------- 0 19.373 15.1127 0 2621
r 0.10421 4 15 tcp 1540 ------- 0 2.1044 15.762 2 1712
r 0.104242 4 15 tcp 40 ------- 0 2.998 15.716 0 1720
r 0.104274 4 15 ack 40 ------- 0 5.729 15.218 21 2941
+ 0.104878 4 15 ack 40 ------- 0 5.729 15.218 23 3122
- 0.104878 4 15 ack 40 ------- 0 5.729 15.218 23 3122
r 0.105506 4 15 tcp 1540 ------- 0 17.365 12.732 2 2443
r 0.105538 4 15 ack 40 ------- 0 17.1131 15.1282 0 2446
r 0.10557 4 15 tcp 40 ------- 0 0.1062 13.432 0 2904
r 0.105602 4 15 ack 40 ------- 0 5.729 15.218 22 2992
r 0.105634 4 15 tcp 40 ------- 0 17.317 12.684 0 2917
+ 0.105936 4 15 tcp 1540 ------- 0 0.1125 14.358 3 3131
- 0.105936 4 15 tcp 1540 ------- 0 0.1125 14.358 3 3131
r 0.107102 4 15 tcp 1540 ------- 0 5.1264 11.612 1 2996
+ 0.107133 4 15 ack 40 ------- 0 5.729 15.218 24 3253
+ 0.107168 4 15 tcp 1540 ------- 0 0.1125 14.358 4 3132
- 0.107168 4 15 ack 40 ------- 0 5.729 15.218 24 3253
- 0.1072 4 15 tcp 1540 ------- 0 0.1125 14.358 4 3132
r 0.108334 4 15 tcp 1540 ------- 0 5.1264 11.612 2 2997
+ 0.108397 4 15 ack 40 ------- 0 5.729 15.218 25 3284
+ 0.1084 4 15 tcp 1540 ------- 0 0.1018 13.388 1 3133
+ 0.1084 4 15 tcp 40 ------- 0 4.1053 13.609 0 3332
- 0.108432 4 15 ack 40 ------- 0 5.729 15.218 25 3284
- 0.108464 4 15 tcp 1540 ------- 0 0.1018 13.388 1 3133
+ 0.109629 4 15 ack 40 ------- 0 5.729 15.218 26 3320
+ 0.109632 4 15 tcp 1540 ------- 0 0.1018 13.388 2 3134
+ 0.109661 4 15 ack 40 ------- 0 5.642 12.172 0 3321
- 0.109696 4 15 tcp 40 ------- 0 4.1053 13.609 0 3332
r 0.109726 4 15 ack 40 ------- 0 5.729 15.218 23 3122
- 0.109728 4 15 ack 40 ------- 0 5.729 15.218 26 3320
- 0.10976 4 15 tcp 1540 ------- 0 0.1018 13.388 2 3134
+ 0.110864 4 15 tcp 1540 ------- 0 0.1125 14.358 5 3137
+ 0.110925 4 15 ack 40 ------- 0 5.729 15.218 27 3364
- 0.110992 4 15 ack 40 ------- 0 5.642 12.172 0 3321
- 0.111024 4 15 tcp 1540 ------- 0 0.1125 14.358 5 3137
r 0.111984 4 15 tcp 1540 ------- 0 0.1125 14.358 3 3131
r 0.112016 4 15 ack 40 ------- 0 5.729 15.218 24 3253
+ 0.112096 4 15 tcp 1540 ------- 0 0.1125 14.358 6 3138
- 0.112256 4 15 ack 40 ------- 0 5.729 15.218 27 3364
- 0.112288 4 15 tcp 1540 ------- 0 0.1125 14.358 6 3138
r 0.113248 4 15 tcp 1540 ------- 0 0.1125 14.358 4 3132
r 0.11328 4 15 ack 40 ------- 0 5.729 15.218 25 3284
+ 0.113328 4 15 tcp 1540 ------- 0 0.1114 14.347 3 3139
- 0.11352 4 15 tcp 1540 ------- 0 0.1114 14.347 3 3139
+ 0.114216 4 15 ack 40 ------- 0 4.423 11.169 1 3502
r 0.114512 4 15 tcp 1540 ------- 0 0.1018 13.388 1 3133
r 0.114544 4 15 tcp 40 ------- 0 4.1053 13.609 0 3332
+ 0.11456 4 15 tcp 1540 ------- 0 0.1114 14.347 4 3140
r 0.114576 4 15 ack 40 ------- 0 5.729 15.218 26 3320
+ 0.114653 4 15 ack 40 ------- 0 5.729 15.218 28 3401
+ 0.114685 4 15 ack 40 ------- 0 5.729 15.218 29 3448
+ 0.114717 4 15 ack 40 ------- 0 5.729 15.218 30 3483
- 0.114752 4 15 ack 40 ------- 0 4.423 11.169 1 3502
- 0.114784 4 15 tcp 1540 ------- 0 0.1114 14.347 4 3140
+ 0.115792 4 15 tcp 1540 ------- 0 0.1114 14.347 5 3143
r 0.115808 4 15 tcp 1540 ------- 0 0.1018 13.388 2 3134
r 0.11584 4 15 ack 40 ------- 0 5.642 12.172 0 3321
+ 0.115949 4 15 ack 40 ------- 0 5.746 15.235 1 3506
- 0.116016 4 15 ack 40 ------- 0 5.729 15.218 28 3401
- 0.116048 4 15 ack 40 ------- 0 5.729 15.218 29 3448
- 0.11608 4 15 ack 40 ------- 0 5.729 15.218 30 3483
- 0.116112 4 15 tcp 1540 ------- 0 0.1114 14.347 5 3143
+ 0.117024 4 15 tcp 1540 ------- 0 0.1114 14.347 6 3144
r 0.117072 4 15 tcp 1540 ------- 0 0.1125 14.358 5 3137
+ 0.117088 4 15 ack 40 ------- 0 0.287 12.25 0 3270
r 0.117104 4 15 ack 40 ------- 0 5.729 15.218 27 3364
+ 0.117181 4 15 ack 40 ------- 0 5.746 15.235 2 3552
- 0.117344 4 15 ack 40 ------- 0 5.746 15.235 1 3506
- 0.117376 4 15 tcp 1540 ------- 0 0.1114 14.347 6 3144
r 0.118336 4 15 tcp 1540 ------- 0 0.1125 14.358 6 3138
+ 0.118352 4 15 tcp 1540 ------- 0 1.1703 15.686 3 1966
+ 0.118413 4 15 ack 40 ------- 0 5.729 15.218 31 3579
- 0.118608 4 15 ack 40 ------- 0 0.287 12.25 0 3270
- 0.11864 4 15 ack 40 ------- 0 5.746 15.235 2 3552
- 0.118672 4 15 tcp 1540 ------- 0 1.1703 15.686 3 1966
r 0.119568 4 15 tcp 1540 ------- 0 0.1114 14.347 3 3139
r 0.1196 4 15 ack 40 ------- 0 4.423 11.169 1 3502
+ 0.119645 4 15 ack 40 ------- 0 5.729 15.218 32 3605
+ 0.119677 4 15 tcp 40 ------- 0 5.1262 11.610 0 3606
+ 0.119709 4 15 ack 40 ------- 0 5.706 15.195 0 3607
+ 0.119747 4 15 tcp 40 ------- 0 3.1190 15.815 0 3275
- 0.119904 4 15 ack 40 ------- 0 5.729 15.218 31 3579
- 0.119936 4 15 ack 40 ------- 0 5.729 15.218 32 3605
- 0.119968 4 15 tcp 40 ------- 0 5.1262 11.610 0 3606
- 0.12 4 15 ack 40 ------- 0 5.706 15.195 0 3607
- 0.120032 4 15 tcp 40 ------- 0 3.1190 15.815 0 3275
r 0.120832 4 15 tcp 1540 ------- 0 0.1114 14.347 4 3140
r 0.120864 4 15 ack 40 ------- 0 5.729 15.218 28 3401
+ 0.12088 4 15 tcp 40 ------- 0 0.1073 13.443 0 3456
- 0.12088 4 15 tcp 40 ------- 0 0.1073 13.443 0 3456
r 0.120896 4 15 ack 40 ------- 0 5.729 15.218 29 3448
+ 0.120909 4 15 ack 40 ------- 0 5.729 15.218 33 3646
- 0.120912 4 15 ack 40 ------- 0 5.729 15.218 33 3646
r 0.120928 4 15 ack 40 ------- 0 5.729 15.218 30 3483
+ 0.122141 4 15 ack 40 ------- 0 5.729 15.218 34 3686
- 0.122141 4 15 ack 40 ------- 0 5.729 15.218 34 3686
r 0.12216 4 15 tcp 1540 ------- 0 0.1114 14.347 5 3143
r 0.122192 4 15 ack 40 ------- 0 5.746 15.235 1 3506
r 0.123424 4 15 tcp 1540 ------- 0 0.1114 14.347 6 3144
r 0.123456 4 15 ack 40 ------- 0 0.287 12.25 0 3270
r 0.123488 4 15 ack 40 ------- 0 5.746 15.235 2 3552
+ 0.124637 4 15 ack 40 ------- 0 5.729 15.218 35 3734
- 0.124637 4 15 ack 40 ------- 0 5.729 15.218 35 3734
r 0.12472 4 15 tcp 1540 ------- 0 1.1703 15.686 3 1966
+ 0.124736 4 15 tcp 40 ------- 0 0.1111 14.344 0 3642
- 0.124736 4 15 tcp 40 ------- 0 0.1111 14.344 0 3642
r 0.124752 4 15 ack 40 ------- 0 5.729 15.218 31 3579
r 0.124784 4 15 ack 40 ------- 0 5.729 15.218 32 3605
r 0.124816 4 15 tcp 40 ------- 0 5.1262 11.610 0 3606
r 0.124848 4 15 ack 40 ------- 0 5.706 15.195 0 3607
r 0.12488 4 15 tcp 40 ------- 0 3.1190 15.815 0 3275
r 0.125728 4 15 tcp 40 ------- 0 0.1073 13.443 0 3456
r 0.12576 4 15 ack 40 ------- 0 5.729 15.218 33 3646
+ 0.125901 4 15 ack 40 ------- 0 5.729 15.218 36 3771
- 0.125901 4 15 ack 40 ------- 0 5.729 15.218 36 3771
+ 0.125933 4 15 ack 40 ------- 0 5.729 15.218 37 3818
- 0.125933 4 15 ack 40 ------- 0 5.729 15.218 37 3818
r 0.126989 4 15 ack 40 ------- 0 5.729 15.218 34 3686
+ 0.127165 4 15 ack 40 ------- 0 5.729 15.218 38 3869
- 0.127165 4 15 ack 40 ------- 0 5.729 15.218 38 3869
+ 0.127328 4 15 tcp 40 ------- 0 1.1417 13.513 0 2326
- 0.127328 4 15 tcp 40 ------- 0 1.1417 13.513 0 2326
r 0.129485 4 15 ack 40 ------- 0 5.729 15.218 35 3734
r 0.129584 4 15 tcp 40 ------- 0 0.1111 14.344 0 3642
r 0.130749 4 15 ack 40 ------- 0 5.729 15.218 36 3771
r 0.130781 4 15 ack 40 ------- 0 5.729 15.218 37 3818
r 0.132013 4 15 ack 40 ------- 0 5.729 15.218 38 3869
r 0.132176 4 15 tcp 40 ------- 0 1.1417 13.513 0 2326
+ 0.13232 4 15 tcp 1540 ------- 0 0.1104 14.337 1 3860
- 0.13232 4 15 tcp 1540 ------- 0 0.1104 14.337 1 3860
+ 0.133357 4 15 ack 40 ------- 0 5.729 15.218 39 3920
+ 0.133389 4 15 tcp 40 ------- 0 5.1435 15.853 0 3981
+ 0.133421 4 15 ack 40 ------- 0 5.729 15.218 40 3997
+ 0.133552 4 15 tcp 1540 ------- 0 0.1104 14.337 2 3861
- 0.133552 4 15 ack 40 ------- 0 5.729 15.218 39 3920
- 0.133584 4 15 tcp 40 ------- 0 5.1435 15.853 0 3981
- 0.133616 4 15 ack 40 ------- 0 5.729 15.218 40 3997
- 0.133648 4 15 tcp 1540 ------- 0 0.1104 14.337 2 3861
+ 0.134717 4 15 ack 40 ------- 0 5.729 15.218 41 4066
- 0.13488 4 15 ack 40 ------- 0 5.729 15.218 41 4066
r 0.138368 4 15 tcp 1540 ------- 0 0.1104 14.337 1 3860
r 0.1384 4 15 ack 40 ------- 0 5.729 15.218 39 3920
r 0.138432 4 15 tcp 40 ------- 0 5.1435 15.853 0 3981
r 0.138464 4 15 ack 40 ------- 0 5.729 15.218 40 3997
r 0.139696 4 15 tcp 1540 ------- 0 0.1104 14.337 2 3861
r 0.139728 4 15 ack 40 ------- 0 5.729 15.218 41 4066
+ 0.139773 4 15 tcp 40 ------- 0 5.1304 13.620 0 4205
- 0.139773 4 15 tcp 40 ------- 0 5.1304 13.620 0 4205
+ 0.139901 4 15 tcp 40 ------- 0 3.1124 14.500 0 3909
- 0.139901 4 15 tcp 40 ------- 0 3.1124 14.500 0 3909
+ 0.139965 4 15 ack 40 ------- 0 5.729 15.218 41 4222
- 0.139965 4 15 ack 40 ------- 0 5.729 15.218 41 4222
+ 0.139997 4 15 tcp 40 ------- 0 3.1153 14.529 0 4025
- 0.139997 4 15 tcp 40 ------- 0 3.1153 14.529 0 4025
+ 0.141005 4 15 ack 40 ------- 0 5.729 15.218 41 4299
- 0.141005 4 15 ack 40 ------- 0 5.729 15.218 41 4299
+ 0.142237 4 15 ack 40 ------- 0 5.729 15.218 41 4340
- 0.142237 4 15 ack 40 ------- 0 5.729 15.218 41 4340
+ 0.143256 4 15 ack 40 ------- 0 17.924 13.1279 0 3930
- 0.143256 4 15 ack 40 ------- 0 17.924 13.1279 0 3930
+ 0.143288 4 15 ack 40 ------- 0 17.1043 14.1327 0 3933
- 0.143288 4 15 ack 40 ------- 0 17.1043 14.1327 0 3933
+ 0.14332 4 15 tcp 40 ------- 0 17.363 12.730 0 3996
- 0.14332 4 15 tcp 40 ------- 0 17.363 12.730 0 3996
r 0.144621 4 15 tcp 40 ------- 0 5.1304 13.620 0 4205
r 0.144749 4 15 tcp 40 ------- 0 3.1124 14.500 0 3909
r 0.144813 4 15 ack 40 ------- 0 5.729 15.218 41 4222
r 0.144845 4 15 tcp 40 ------- 0 3.1153 14.529 0 4025
r 0.145853 4 15 ack 40 ------- 0 5.729 15.218 41 4299
r 0.147085 4 15 ack 40 ------- 0 5.729 15.218 41 4340
r 0.148104 4 15 ack 40 ------- 0 17.924 13.1279 0 3930
r 0.148136 4 15 ack 40 ------- 0 17.1043 14.1327 0 3933
r 0.148168 4 15 tcp 40 ------- 0 17.363 12.730 0 3996
+ 0.149661 4 15 tcp 40 ------- 0 5.1312 14.587 0 4442
- 0.149661 4 15 tcp 40 ------- 0 5.1312 14.587 0 4442
+ 0.149693 4 15 ack 40 ------- 0 5.729 15.218 41 4460
- 0.149693 4 15 ack 40 ------- 0 5.729 15.218 41 4460
+ 0.149725 4 15 ack 40 ------- 0 5.729 15.218 41 4510
- 0.149725 4 15 ack 40 ------- 0 5.729 15.218 41 4510
+ 0.153216 4 15 tcp 1540 ------- 0 0.1096 14.329 3 4663
- 0.153216 4 15 tcp 1540 ------- 0 0.1096 14.329 3 4663
+ 0.153453 4 15 ack 40 ------- 0 5.746 15.235 3 4661
+ 0.153517 4 15 ack 40 ------- 0 5.746 15.235 4 4731
+ 0.154194 4 15 tcp 40 ------- 0 5.1170 11.518 0 4754
+ 0.154312 4 15 ack 40 ------- 0 4.428 11.174 0 4802
+ 0.154448 4 15 tcp 1540 ------- 0 0.1096 14.329 4 4664
- 0.154448 4 15 ack 40 ------- 0 5.746 15.235 3 4661
- 0.15448 4 15 ack 40 ------- 0 5.746 15.235 4 4731
r 0.154509 4 15 tcp 40 ------- 0 5.1312 14.587 0 4442
- 0.154512 4 15 tcp 40 ------- 0 5.1170 11.518 0 4754
r 0.154541 4 15 ack 40 ------- 0 5.729 15.218 41 4460
- 0.154544 4 15 ack 40 ------- 0 4.428 11.174 0 4802
r 0.154573 4 15 ack 40 ------- 0 5.729 15.218 41 4510
- 0.154576 4 15 tcp 1540 ------- 0 0.1096 14.329 4 4664
+ 0.154781 4 15 ack 40 ------- 0 5.746 15.235 5 4769
+ 0.15568 4 15 tcp 1540 ------- 0 0.1096 14.329 5 4665
- 0.155808 4 15 ack 40 ------- 0 5.746 15.235 5 4769
- 0.15584 4 15 tcp 1540 ------- 0 0.1096 14.329 5 4665
+ 0.156912 4 15 tcp 1540 ------- 0 0.1096 14.329 6 4666
+ 0.156976 4 15 tcp 40 ------- 0 17.431 15.1080 0 4433
- 0.157072 4 15 tcp 1540 ------- 0 0.1096 14.329 6 4666
- 0.158304 4 15 tcp 40 ------- 0 17.431 15.1080 0 4433
+ 0.1584 4 15 ack 40 ------- 0 17.1131 15.1282 1 4784
- 0.1584 4 15 ack 40 ------- 0 17.1131 15.1282 1 4784
+ 0.158509 4 15 ack 40 ------- 0 5.746 15.235 6 4818
- 0.158509 4 15 ack 40 ------- 0 5.746 15.235 6 4818
r 0.159264 4 15 tcp 1540 ------- 0 0.1096 14.329 3 4663
r 0.159296 4 15 ack 40 ------- 0 5.746 15.235 3 4661
r 0.159328 4 15 ack 40 ------- 0 5.746 15.235 4 4731
r 0.15936 4 15 tcp 40 ------- 0 5.1170 11.518 0 4754
r 0.159392 4 15 ack 40 ------- 0 4.428 11.174 0 4802
r 0.160624 4 15 tcp 1540 ------- 0 0.1096 14.329 4 4664
r 0.160656 4 15 ack 40 ------- 0 5.746 15.235 5 4769
+ 0.161037 4 15 ack 40 ------- 0 5.729 15.218 41 4872
- 0.161037 4 15 ack 40 ------- 0 5.729 15.218 41 4872
+ 0.161069 4 15 tcp 40 ------- 0 5.1373 14.648 0 4889
- 0.161069 4 15 tcp 40 ------- 0 5.1373 14.648 0 4889
+ 0.161101 4 15 ack 40 ------- 0 5.729 15.218 41 4920
- 0.161101 4 15 ack 40 ------- 0 5.729 15.218 41 4920
+ 0.161165 4 15 ack 40 ------- 0 5.706 15.195 1 4948
- 0.161165 4 15 ack 40 ------- 0 5.706 15.195 1 4948
r 0.161888 4 15 tcp 1540 ------- 0 0.1096 14.329 5 4665