+ 0.002249 1 21 rtProtoDV 26 ------- 0 1.2013 21.1182 -1 26
- 0.002249 1 21 rtProtoDV 26 ------- 0 1.2013 21.1182 -1 26
+ 0.005575 1 21 rtProtoDV 26 ------- 0 1.2013 21.1182 -1 104
- 0.005575 1 21 rtProtoDV 26 ------- 0 1.2013 21.1182 -1 104
+ 0.0072 1 21 rtProtoDV 26 ------- 0 1.2013 21.1182 -1 162
- 0.0072 1 21 rtProtoDV 26 ------- 0 1.2013 21.1182 -1 162
+ 0.007769 1 21 rtProtoDV 26 ------- 0 1.2013 21.1182 -1 192
- 0.007769 1 21 rtProtoDV 26 ------- 0 1.2013 21.1182 -1 192
+ 0.00802 1 21 rtProtoDV 26 ------- 0 1.2013 21.1182 -1 211
- 0.00802 1 21 rtProtoDV 26 ------- 0 1.2013 21.1182 -1 211
+ 0.010239 1 21 rtProtoDV 26 ------- 0 1.2013 21.1182 -1 304
- 0.010239 1 21 rtProtoDV 26 ------- 0 1.2013 21.1182 -1 304
r 0.011838 1 21 rtProtoDV 26 ------- 0 1.2013 21.1182 -1 26
+ 0.012991 1 21 rtProtoDV 26 ------- 0 1.2013 21.1182 -1 469
- 0.012991 1 21 rtProtoDV 26 ------- 0 1.2013 21.1182 -1 469
r 0.015164 1 21 rtProtoDV 26 ------- 0 1.2013 21.1182 -1 104
+ 0.015615 1 21 ack 40 ------- 0 1.970 21.80 0 577
- 0.015615 1 21 ack 40 ------- 0 1.970 21.80 0 577
+ 0.016623 1 21 rtProtoDV 26 ------- 0 1.2013 21.1182 -1 615
- 0.016623 1 21 rtProtoDV 26 ------- 0 1.2013 21.1182 -1 615
r 0.016788 1 21 rtProtoDV 26 ------- 0 1.2013 21.1182 -1 162
+ 0.016898 1 21 rtProtoDV 26 ------- 0 1.2013 21.1182 -1 635
- 0.016898 1 21 rtProtoDV 26 ------- 0 1.2013 21.1182 -1 635
r 0.017357 1 21 rtProtoDV 26 ------- 0 1.2013 21.1182 -1 192
r 0.017609 1 21 rtProtoDV 26 ------- 0 1.2013 21.1182 -1 211
+ 0.017901 1 21 tcp 40 ------- 0 10.1040 21.726 0 315
- 0.017901 1 21 tcp 40 ------- 0 10.1040 21.726 0 315
+ 0.018751 1 21 rtProtoDV 26 ------- 0 1.2013 21.1182 -1 704
- 0.018751 1 21 rtProtoDV 26 ------- 0 1.2013 21.1182 -1 704
+ 0.019138 1 21 rtProtoDV 26 ------- 0 1.2013 21.1182 -1 717
- 0.019138 1 21 rtProtoDV 26 ------- 0 1.2013 21.1182 -1 717
+ 0.019363 1 21 rtProtoDV 26 ------- 0 1.2013 21.1182 -1 733
- 0.019363 1 21 rtProtoDV 26 ------- 0 1.2013 21.1182 -1 733
r 0.019828 1 21 rtProtoDV 26 ------- 0 1.2013 21.1182 -1 304
r 0.02258 1 21 rtProtoDV 26 ------- 0 1.2013 21.1182 -1 469
+ 0.022957 1 21 rtProtoDV 26 ------- 0 1.2013 21.1182 -1 830
- 0.022957 1 21 rtProtoDV 26 ------- 0 1.2013 21.1182 -1 830
+ 0.025187 1 21 tcp 40 ------- 0 15.1371 21.810 0 579
- 0.025187 1 21 tcp 40 ------- 0 15.1371 21.810 0 579
r 0.025248 1 21 ack 40 ------- 0 1.970 21.80 0 577
r 0.026211 1 21 rtProtoDV 26 ------- 0 1.2013 21.1182 -1 615
+ 0.026247 1 21 tcp 40 ------- 0 0.1382 21.527 0 863
- 0.026247 1 21 tcp 40 ------- 0 0.1382 21.527 0 863
r 0.026486 1 21 rtProtoDV 26 ------- 0 1.2013 21.1182 -1 635
r 0.027535 1 21 tcp 40 ------- 0 10.1040 21.726 0 315
r 0.02834 1 21 rtProtoDV 26 ------- 0 1.2013 21.1182 -1 704
r 0.028727 1 21 rtProtoDV 26 ------- 0 1.2013 21.1182 -1 717
r 0.028952 1 21 rtProtoDV 26 ------- 0 1.2013 21.1182 -1 733
+ 0.029615 1 21 ack 40 ------- 0 0.482 21.8 0 927
- 0.029615 1 21 ack 40 ------- 0 0.482 21.8 0 927
+ 0.029765 1 21 tcp 40 ------- 0 4.1266 21.605 0 879
- 0.029765 1 21 tcp 40 ------- 0 4.1266 21.605 0 879
r 0.032546 1 21 rtProtoDV 26 ------- 0 1.2013 21.1182 -1 830
r 0.034821 1 21 tcp 40 ------- 0 15.1371 21.810 0 579
+ 0.035252 1 21 tcp 40 ------- 0 4.1298 21.637 0 1007
- 0.035252 1 21 tcp 40 ------- 0 4.1298 21.637 0 1007
r 0.03588 1 21 tcp 40 ------- 0 0.1382 21.527 0 863
r 0.039248 1 21 ack 40 ------- 0 0.482 21.8 0 927
r 0.039398 1 21 tcp 40 ------- 0 4.1266 21.605 0 879
+ 0.039681 1 21 ack 40 ------- 0 1.970 21.80 1 1219
- 0.039681 1 21 ack 40 ------- 0 1.970 21.80 1 1219
+ 0.040507 1 21 tcp 40 ------- 0 16.1096 21.867 0 1043
- 0.040507 1 21 tcp 40 ------- 0 16.1096 21.867 0 1043
+ 0.043562 1 21 tcp 40 ------- 0 9.1300 21.694 0 1001
- 0.043562 1 21 tcp 40 ------- 0 9.1300 21.694 0 1001
+ 0.044609 1 21 ack 40 ------- 0 1.970 21.80 2 1351
- 0.044609 1 21 ack 40 ------- 0 1.970 21.80 2 1351
r 0.044885 1 21 tcp 40 ------- 0 4.1298 21.637 0 1007
+ 0.048651 1 21 tcp 1540 ------- 0 0.1382 21.527 1 1373
- 0.048651 1 21 tcp 1540 ------- 0 0.1382 21.527 1 1373
r 0.049315 1 21 ack 40 ------- 0 1.970 21.80 1 1219
+ 0.049883 1 21 tcp 1540 ------- 0 0.1382 21.527 2 1374
r 0.05014 1 21 tcp 40 ------- 0 16.1096 21.867 0 1043
r 0.053195 1 21 tcp 40 ------- 0 9.1300 21.694 0 1001
- 0.053579 1 21 tcp 1540 ------- 0 0.1382 21.527 2 1374
r 0.054243 1 21 ack 40 ------- 0 1.970 21.80 2 1351
+ 0.055108 1 21 tcp 40 ------- 0 4.1313 21.652 0 1409
+ 0.055396 1 21 ack 40 ------- 0 1.964 21.74 0 1627
+ 0.056819 1 21 ack 40 ------- 0 0.482 21.8 1 1608
- 0.058507 1 21 tcp 40 ------- 0 4.1313 21.652 0 1409
- 0.058635 1 21 ack 40 ------- 0 1.964 21.74 0 1627
- 0.058763 1 21 ack 40 ------- 0 0.482 21.8 1 1608
+ 0.061747 1 21 ack 40 ------- 0 0.482 21.8 2 1745
- 0.061747 1 21 ack 40 ------- 0 0.482 21.8 2 1745
+ 0.061811 1 21 ack 40 ------- 0 0.503 21.29 0 1749
- 0.061875 1 21 ack 40 ------- 0 0.503 21.29 0 1749
r 0.063084 1 21 tcp 1540 ------- 0 0.1382 21.527 1 1373
+ 0.063748 1 21 ack 40 ------- 0 1.970 21.80 3 1857
- 0.063748 1 21 ack 40 ------- 0 1.970 21.80 3 1857
+ 0.064118 1 21 tcp 1540 ------- 0 10.1040 21.726 1 1290
- 0.064118 1 21 tcp 1540 ------- 0 10.1040 21.726 1 1290
+ 0.0646 1 21 ack 40 ------- 0 9.959 21.277 0 1520
+ 0.064728 1 21 ack 40 ------- 0 9.943 21.261 0 1522
+ 0.067814 1 21 tcp 1540 ------- 0 10.1040 21.726 2 1291
r 0.068012 1 21 tcp 1540 ------- 0 0.1382 21.527 2 1374
r 0.06814 1 21 tcp 40 ------- 0 4.1313 21.652 0 1409
r 0.068268 1 21 ack 40 ------- 0 1.964 21.74 0 1627
r 0.068396 1 21 ack 40 ------- 0 0.482 21.8 1 1608
+ 0.068676 1 21 ack 40 ------- 0 1.970 21.80 4 2003
- 0.069046 1 21 ack 40 ------- 0 9.959 21.277 0 1520
+ 0.069063 1 21 rtProtoDV 26 ------- 0 1.2013 21.1182 -1 2017
- 0.069174 1 21 ack 40 ------- 0 9.943 21.261 0 1522
- 0.069302 1 21 tcp 1540 ------- 0 10.1040 21.726 2 1291
+ 0.070027 1 21 tcp 40 ------- 0 16.1092 21.863 0 1940
r 0.071381 1 21 ack 40 ------- 0 0.482 21.8 2 1745
r 0.071509 1 21 ack 40 ------- 0 0.503 21.29 0 1749
+ 0.071764 1 21 tcp 40 ------- 0 15.1372 21.811 0 1665
r 0.073382 1 21 ack 40 ------- 0 1.970 21.80 3 1857
+ 0.07386 1 21 ack 40 ------- 0 1.970 21.80 5 2186
- 0.07423 1 21 ack 40 ------- 0 1.970 21.80 4 2003
- 0.074358 1 21 rtProtoDV 26 ------- 0 1.2013 21.1182 -1 2017
- 0.074441 1 21 tcp 40 ------- 0 16.1092 21.863 0 1940
- 0.074569 1 21 tcp 40 ------- 0 15.1372 21.811 0 1665
- 0.074697 1 21 ack 40 ------- 0 1.970 21.80 5 2186
+ 0.075856 1 21 tcp 1540 ------- 0 0.1382 21.527 3 2147
- 0.075856 1 21 tcp 1540 ------- 0 0.1382 21.527 3 2147
+ 0.077088 1 21 tcp 1540 ------- 0 0.1382 21.527 4 2148
+ 0.078163 1 21 rtProtoDV 26 ------- 0 1.2013 21.1182 -1 2324
+ 0.078352 1 21 tcp 1540 ------- 0 4.1266 21.605 1 1844
r 0.078551 1 21 tcp 1540 ------- 0 10.1040 21.726 1 1290
r 0.078679 1 21 ack 40 ------- 0 9.959 21.277 0 1520
+ 0.078788 1 21 ack 40 ------- 0 1.970 21.80 6 2352
r 0.078807 1 21 ack 40 ------- 0 9.943 21.261 0 1522
+ 0.078916 1 21 ack 40 ------- 0 1.945 21.55 0 2355
+ 0.079616 1 21 tcp 1540 ------- 0 4.1266 21.605 2 1845
+ 0.079648 1 21 ack 40 ------- 0 18.974 21.383 0 1499
+ 0.080428 1 21 rtProtoDV 26 ------- 0 1.2013 21.1182 -1 2410
- 0.080784 1 21 tcp 1540 ------- 0 0.1382 21.527 4 2148
+ 0.080944 1 21 tcp 1540 ------- 0 4.1298 21.637 1 1847
+ 0.082208 1 21 tcp 1540 ------- 0 4.1298 21.637 2 1848
+ 0.08344 1 21 tcp 1540 ------- 0 0.1382 21.527 5 2303
d 0.08344 1 21 tcp 1540 ------- 0 0.1382 21.527 5 2303
r 0.083735 1 21 tcp 1540 ------- 0 10.1040 21.726 2 1291
+ 0.083844 1 21 ack 40 ------- 0 1.964 21.74 1 2516
d 0.083844 1 21 ack 40 ------- 0 1.964 21.74 1 2516
r 0.083863 1 21 ack 40 ------- 0 1.970 21.80 4 2003
r 0.083946 1 21 rtProtoDV 26 ------- 0 1.2013 21.1182 -1 2017
r 0.084074 1 21 tcp 40 ------- 0 16.1092 21.863 0 1940
r 0.084202 1 21 tcp 40 ------- 0 15.1372 21.811 0 1665
r 0.08433 1 21 ack 40 ------- 0 1.970 21.80 5 2186
+ 0.084672 1 21 tcp 1540 ------- 0 0.1382 21.527 6 2304
d 0.084672 1 21 tcp 1540 ------- 0 0.1382 21.527 6 2304
- 0.085712 1 21 rtProtoDV 26 ------- 0 1.2013 21.1182 -1 2324
- 0.085795 1 21 tcp 1540 ------- 0 4.1266 21.605 1 1844
+ 0.085968 1 21 ack 40 ------- 0 0.482 21.8 3 2519
+ 0.088433 1 21 tcp 1540 ------- 0 16.1096 21.867 1 2107
+ 0.088772 1 21 ack 40 ------- 0 1.964 21.74 2 2689
d 0.088772 1 21 ack 40 ------- 0 1.964 21.74 2 2689
r 0.090289 1 21 tcp 1540 ------- 0 0.1382 21.527 3 2147
+ 0.090468 1 21 tcp 1540 ------- 0 15.1371 21.810 1 1831
d 0.090468 1 21 tcp 1540 ------- 0 15.1371 21.810 1 1831
- 0.090723 1 21 ack 40 ------- 0 1.970 21.80 6 2352
- 0.090851 1 21 ack 40 ------- 0 1.945 21.55 0 2355
+ 0.090896 1 21 ack 40 ------- 0 0.482 21.8 4 2691
- 0.090979 1 21 tcp 1540 ------- 0 4.1266 21.605 2 1845
+ 0.093361 1 21 tcp 1540 ------- 0 16.1096 21.867 2 2108
+ 0.0937 1 21 ack 40 ------- 0 1.970 21.80 7 2839
r 0.095217 1 21 tcp 1540 ------- 0 0.1382 21.527 4 2148
r 0.0953 1 21 rtProtoDV 26 ------- 0 1.2013 21.1182 -1 2324
+ 0.095428 1 21 tcp 1540 ------- 0 15.1371 21.810 2 1832
d 0.095428 1 21 tcp 1540 ------- 0 15.1371 21.810 2 1832
- 0.095907 1 21 ack 40 ------- 0 18.974 21.383 0 1499
- 0.096035 1 21 rtProtoDV 26 ------- 0 1.2013 21.1182 -1 2410
- 0.096118 1 21 tcp 1540 ------- 0 4.1298 21.637 1 1847
+ 0.098628 1 21 ack 40 ------- 0 1.970 21.80 8 3002
r 0.100228 1 21 tcp 1540 ------- 0 4.1266 21.605 1 1844
r 0.100356 1 21 ack 40 ------- 0 1.970 21.80 6 2352
r 0.100484 1 21 ack 40 ------- 0 1.945 21.55 0 2355
- 0.101046 1 21 tcp 1540 ------- 0 4.1298 21.637 2 1848
+ 0.103825 1 21 tcp 1540 ------- 0 9.1300 21.694 1 2665
+ 0.103894 1 21 ack 40 ------- 0 2.648 21.108 0 1828
+ 0.105089 1 21 tcp 1540 ------- 0 9.1300 21.694 2 2666
r 0.105412 1 21 tcp 1540 ------- 0 4.1266 21.605 2 1845
r 0.10554 1 21 ack 40 ------- 0 18.974 21.383 0 1499
r 0.105623 1 21 rtProtoDV 26 ------- 0 1.2013 21.1182 -1 2410
+ 0.105808 1 21 ack 40 ------- 0 0.482 21.8 5 3179
d 0.105808 1 21 ack 40 ------- 0 0.482 21.8 5 3179
- 0.105974 1 21 ack 40 ------- 0 0.482 21.8 3 2519
- 0.106102 1 21 tcp 1540 ------- 0 16.1096 21.867 1 2107
+ 0.108324 1 21 tcp 1540 ------- 0 4.1313 21.652 1 2397
+ 0.109556 1 21 tcp 1540 ------- 0 4.1313 21.652 2 2398
r 0.110551 1 21 tcp 1540 ------- 0 4.1298 21.637 1 1847
+ 0.110736 1 21 ack 40 ------- 0 0.482 21.8 6 3336
d 0.110736 1 21 ack 40 ------- 0 0.482 21.8 6 3336
- 0.11103 1 21 ack 40 ------- 0 0.482 21.8 4 2691
- 0.111158 1 21 tcp 1540 ------- 0 16.1096 21.867 2 2108
+ 0.111536 1 21 tcp 40 ------- 0 1.1890 21.547 0 3435
r 0.115479 1 21 tcp 1540 ------- 0 4.1298 21.637 2 1848
r 0.115607 1 21 ack 40 ------- 0 0.482 21.8 3 2519
+ 0.115664 1 21 ack 40 ------- 0 0.503 21.29 1 3492
- 0.116086 1 21 ack 40 ------- 0 1.970 21.80 7 2839
- 0.116214 1 21 ack 40 ------- 0 1.970 21.80 8 3002
- 0.116342 1 21 tcp 1540 ------- 0 9.1300 21.694 1 2665
+ 0.118468 1 21 ack 40 ------- 0 1.973 21.83 0 3615
r 0.120535 1 21 tcp 1540 ------- 0 16.1096 21.867 1 2107
+ 0.120592 1 21 ack 40 ------- 0 0.503 21.29 2 3618
r 0.120663 1 21 ack 40 ------- 0 0.482 21.8 4 2691
- 0.12127 1 21 ack 40 ------- 0 2.648 21.108 0 1828
- 0.121398 1 21 tcp 1540 ------- 0 9.1300 21.694 2 2666
+ 0.123396 1 21 ack 40 ------- 0 1.970 21.80 9 3780
r 0.125591 1 21 tcp 1540 ------- 0 16.1096 21.867 2 2108
r 0.125719 1 21 ack 40 ------- 0 1.970 21.80 7 2839
r 0.125847 1 21 ack 40 ------- 0 1.970 21.80 8 3002
- 0.126326 1 21 tcp 1540 ------- 0 4.1313 21.652 1 2397
+ 0.128324 1 21 ack 40 ------- 0 1.970 21.80 10 3967
r 0.130775 1 21 tcp 1540 ------- 0 9.1300 21.694 1 2665
r 0.130903 1 21 ack 40 ------- 0 2.648 21.108 0 1828
- 0.131254 1 21 tcp 1540 ------- 0 4.1313 21.652 2 2398
+ 0.133591 1 21 ack 40 ------- 0 1.970 21.80 11 4120
r 0.135831 1 21 tcp 1540 ------- 0 9.1300 21.694 2 2666
- 0.136182 1 21 tcp 40 ------- 0 1.1890 21.547 0 3435
- 0.13631 1 21 ack 40 ------- 0 0.503 21.29 1 3492
- 0.136438 1 21 ack 40 ------- 0 1.973 21.83 0 3615
- 0.136566 1 21 ack 40 ------- 0 0.503 21.29 2 3618
- 0.136694 1 21 ack 40 ------- 0 1.970 21.80 9 3780
- 0.136822 1 21 ack 40 ------- 0 1.970 21.80 10 3967
- 0.13695 1 21 ack 40 ------- 0 1.970 21.80 11 4120
+ 0.138519 1 21 ack 40 ------- 0 1.970 21.80 12 4265
- 0.138519 1 21 ack 40 ------- 0 1.970 21.80 12 4265
r 0.140759 1 21 tcp 1540 ------- 0 4.1313 21.652 1 2397
+ 0.140777 1 21 tcp 1540 ------- 0 0.1382 21.527 7 4240
- 0.140777 1 21 tcp 1540 ------- 0 0.1382 21.527 7 4240
+ 0.141161 1 21 ack 40 ------- 0 9.959 21.277 1 3837
+ 0.142009 1 21 tcp 1540 ------- 0 0.1382 21.527 8 4241
+ 0.142233 1 21 tcp 40 ------- 0 17.1348 21.893 0 3971
+ 0.143659 1 21 ack 40 ------- 0 1.970 21.80 13 4432
+ 0.144318 1 21 ack 40 ------- 0 9.959 21.277 2 3939
r 0.145687 1 21 tcp 1540 ------- 0 4.1313 21.652 2 2398
- 0.145705 1 21 ack 40 ------- 0 9.959 21.277 1 3837
r 0.145815 1 21 tcp 40 ------- 0 1.1890 21.547 0 3435
- 0.145833 1 21 tcp 1540 ------- 0 0.1382 21.527 8 4241
r 0.145943 1 21 ack 40 ------- 0 0.503 21.29 1 3492
r 0.146071 1 21 ack 40 ------- 0 1.973 21.83 0 3615
r 0.146199 1 21 ack 40 ------- 0 0.503 21.29 2 3618
r 0.146327 1 21 ack 40 ------- 0 1.970 21.80 9 3780
r 0.146455 1 21 ack 40 ------- 0 1.970 21.80 10 3967
r 0.146583 1 21 ack 40 ------- 0 1.970 21.80 11 4120
+ 0.146878 1 21 ack 40 ------- 0 9.943 21.261 1 3991
+ 0.147071 1 21 tcp 40 ------- 0 24.423 21.1019 0 3493
r 0.148153 1 21 ack 40 ------- 0 1.970 21.80 12 4265
+ 0.148238 1 21 ack 40 ------- 0 9.943 21.261 2 4127
+ 0.148587 1 21 ack 40 ------- 0 1.970 21.80 14 4628
+ 0.150755 1 21 tcp 1540 ------- 0 0.1382 21.527 9 4591
- 0.150761 1 21 tcp 40 ------- 0 17.1348 21.893 0 3971
- 0.150889 1 21 ack 40 ------- 0 1.970 21.80 13 4432
- 0.151017 1 21 ack 40 ------- 0 9.959 21.277 2 3939
- 0.151145 1 21 ack 40 ------- 0 9.943 21.261 1 3991
- 0.151273 1 21 tcp 40 ------- 0 24.423 21.1019 0 3493
- 0.151401 1 21 ack 40 ------- 0 9.943 21.261 2 4127
- 0.151529 1 21 ack 40 ------- 0 1.970 21.80 14 4628
- 0.151657 1 21 tcp 1540 ------- 0 0.1382 21.527 9 4591
+ 0.151987 1 21 tcp 1540 ------- 0 0.1382 21.527 10 4592
+ 0.153304 1 21 tcp 40 ------- 0 16.1066 21.837 0 3458
+ 0.153432 1 21 tcp 40 ------- 0 16.1100 21.871 0 3486
+ 0.153515 1 21 ack 40 ------- 0 1.945 21.55 1 4787
+ 0.153974 1 21 tcp 40 ------- 0 10.1053 21.739 0 2702
r 0.15521 1 21 tcp 1540 ------- 0 0.1382 21.527 7 4240
r 0.155338 1 21 ack 40 ------- 0 9.959 21.277 1 3837
- 0.156585 1 21 tcp 1540 ------- 0 0.1382 21.527 10 4592
+ 0.158443 1 21 ack 40 ------- 0 1.945 21.55 2 4955
r 0.160266 1 21 tcp 1540 ------- 0 0.1382 21.527 8 4241
r 0.160394 1 21 tcp 40 ------- 0 17.1348 21.893 0 3971
r 0.160522 1 21 ack 40 ------- 0 1.970 21.80 13 4432
r 0.16065 1 21 ack 40 ------- 0 9.959 21.277 2 3939
r 0.160778 1 21 ack 40 ------- 0 9.943 21.261 1 3991
r 0.160906 1 21 tcp 40 ------- 0 24.423 21.1019 0 3493
r 0.161034 1 21 ack 40 ------- 0 9.943 21.261 2 4127
r 0.161162 1 21 ack 40 ------- 0 1.970 21.80 14 4628
- 0.161513 1 21 tcp 40 ------- 0 16.1066 21.837 0 3458
- 0.161641 1 21 tcp 40 ------- 0 16.1100 21.871 0 3486
- 0.161769 1 21 ack 40 ------- 0 1.945 21.55 1 4787
- 0.161897 1 21 tcp 40 ------- 0 10.1053 21.739 0 2702
- 0.162025 1 21 ack 40 ------- 0 1.945 21.55 2 4955
+ 0.16371 1 21 ack 40 ------- 0 1.970 21.80 15 5177
- 0.16371 1 21 ack 40 ------- 0 1.970 21.80 15 5177
r 0.16609 1 21 tcp 1540 ------- 0 0.1382 21.527 9 4591
+ 0.167113 1 21 ack 40 ------- 0 0.482 21.8 7 5217
- 0.167113 1 21 ack 40 ------- 0 0.482 21.8 7 5217
+ 0.168638 1 21 ack 40 ------- 0 1.970 21.80 16 5357
- 0.168638 1 21 ack 40 ------- 0 1.970 21.80 16 5357
r 0.171018 1 21 tcp 1540 ------- 0 0.1382 21.527 10 4592
r 0.171146 1 21 tcp 40 ------- 0 16.1066 21.837 0 3458
r 0.171274 1 21 tcp 40 ------- 0 16.1100 21.871 0 3486
r 0.171402 1 21 ack 40 ------- 0 1.945 21.55 1 4787
r 0.17153 1 21 tcp 40 ------- 0 10.1053 21.739 0 2702
r 0.171658 1 21 ack 40 ------- 0 1.945 21.55 2 4955
+ 0.172041 1 21 ack 40 ------- 0 0.482 21.8 8 5412
- 0.172041 1 21 ack 40 ------- 0 0.482 21.8 8 5412
r 0.173343 1 21 ack 40 ------- 0 1.970 21.80 15 5177
+ 0.173566 1 21 ack 40 ------- 0 1.970 21.80 17 5603
- 0.173566 1 21 ack 40 ------- 0 1.970 21.80 17 5603
r 0.176747 1 21 ack 40 ------- 0 0.482 21.8 7 5217
r 0.178271 1 21 ack 40 ------- 0 1.970 21.80 16 5357
+ 0.178494 1 21 ack 40 ------- 0 1.970 21.80 18 5767
- 0.178494 1 21 ack 40 ------- 0 1.970 21.80 18 5767
+ 0.178878 1 21 tcp 1540 ------- 0 1.1890 21.547 1 5779
- 0.178878 1 21 tcp 1540 ------- 0 1.1890 21.547 1 5779
+ 0.178878 1 21 tcp 1540 ------- 0 1.1890 21.547 2 5780
r 0.181675 1 21 ack 40 ------- 0 0.482 21.8 8 5412
r 0.183199 1 21 ack 40 ------- 0 1.970 21.80 17 5603
+ 0.183806 1 21 ack 40 ------- 0 1.973 21.83 1 5928
- 0.183806 1 21 tcp 1540 ------- 0 1.1890 21.547 2 5780
+ 0.185977 1 21 tcp 1540 ------- 0 4.1266 21.605 3 4688
r 0.188127 1 21 ack 40 ------- 0 1.970 21.80 18 5767
+ 0.188312 1 21 tcp 1540 ------- 0 16.1092 21.863 1 4058
+ 0.188734 1 21 ack 40 ------- 0 1.973 21.83 2 6084
- 0.188734 1 21 ack 40 ------- 0 1.973 21.83 1 5928
- 0.188862 1 21 tcp 1540 ------- 0 4.1266 21.605 3 4688
+ 0.189705 1 21 tcp 1540 ------- 0 4.1266 21.605 4 4689
+ 0.190969 1 21 tcp 1540 ------- 0 4.1266 21.605 5 4710
+ 0.192233 1 21 tcp 1540 ------- 0 4.1266 21.605 6 4711
+ 0.192297 1 21 tcp 40 ------- 0 4.1302 21.641 0 4741
+ 0.192361 1 21 ack 40 ------- 0 0.482 21.8 9 6091
+ 0.192425 1 21 ack 40 ------- 0 0.482 21.8 10 6154
+ 0.19324 1 21 tcp 1540 ------- 0 16.1092 21.863 2 4059
r 0.193311 1 21 tcp 1540 ------- 0 1.1890 21.547 1 5779
+ 0.193662 1 21 ack 40 ------- 0 1.970 21.80 19 6257
d 0.193662 1 21 ack 40 ------- 0 1.970 21.80 19 6257
- 0.19379 1 21 tcp 1540 ------- 0 16.1092 21.863 1 4058
r 0.198239 1 21 tcp 1540 ------- 0 1.1890 21.547 2 5780
r 0.198367 1 21 ack 40 ------- 0 1.973 21.83 1 5928
+ 0.19859 1 21 ack 40 ------- 0 1.970 21.80 20 6467
- 0.198718 1 21 ack 40 ------- 0 1.973 21.83 2 6084
- 0.198846 1 21 tcp 1540 ------- 0 4.1266 21.605 4 4689
+ 0.202298 1 21 tcp 40 ------- 0 13.1518 21.774 0 3809
r 0.203295 1 21 tcp 1540 ------- 0 4.1266 21.605 3 4688
+ 0.20348 1 21 tcp 40 ------- 0 16.1076 21.847 0 4400
+ 0.203518 1 21 ack 40 ------- 0 1.970 21.80 21 6638
d 0.203518 1 21 ack 40 ------- 0 1.970 21.80 21 6638
- 0.203774 1 21 tcp 1540 ------- 0 4.1266 21.605 5 4710
+ 0.205094 1 21 ack 40 ------- 0 0.496 21.22 0 6455
+ 0.206454 1 21 tcp 1540 ------- 0 4.1298 21.637 3 5114
d 0.206454 1 21 tcp 1540 ------- 0 4.1298 21.637 3 5114
+ 0.207718 1 21 tcp 1540 ------- 0 4.1298 21.637 4 5115
d 0.207718 1 21 tcp 1540 ------- 0 4.1298 21.637 4 5115
r 0.208223 1 21 tcp 1540 ------- 0 16.1092 21.863 1 4058
r 0.208351 1 21 ack 40 ------- 0 1.973 21.83 2 6084
+ 0.208446 1 21 ack 40 ------- 0 1.970 21.80 22 6814
d 0.208446 1 21 ack 40 ------- 0 1.970 21.80 22 6814
- 0.208702 1 21 tcp 1540 ------- 0 4.1266 21.605 6 4711
+ 0.20895 1 21 tcp 1540 ------- 0 10.1040 21.726 3 3796
+ 0.210214 1 21 tcp 1540 ------- 0 10.1040 21.726 4 3797
d 0.210214 1 21 tcp 1540 ------- 0 10.1040 21.726 4 3797
+ 0.211478 1 21 tcp 1540 ------- 0 10.1040 21.726 5 3798
d 0.211478 1 21 tcp 1540 ------- 0 10.1040 21.726 5 3798
+ 0.21151 1 21 ack 40 ------- 0 18.974 21.383 1 5427
d 0.21151 1 21 ack 40 ------- 0 18.974 21.383 1 5427
+ 0.212806 1 21 tcp 1540 ------- 0 10.1040 21.726 6 3799
d 0.212806 1 21 tcp 1540 ------- 0 10.1040 21.726 6 3799
r 0.213279 1 21 tcp 1540 ------- 0 4.1266 21.605 4 4689
+ 0.213374 1 21 ack 40 ------- 0 1.970 21.80 23 6957
d 0.213374 1 21 ack 40 ------- 0 1.970 21.80 23 6957
- 0.21363 1 21 tcp 40 ------- 0 4.1302 21.641 0 4741
- 0.213758 1 21 ack 40 ------- 0 0.482 21.8 9 6091
- 0.213886 1 21 ack 40 ------- 0 0.482 21.8 10 6154
- 0.214014 1 21 tcp 1540 ------- 0 16.1092 21.863 2 4059
r 0.218207 1 21 tcp 1540 ------- 0 4.1266 21.605 5 4710
+ 0.218302 1 21 ack 40 ------- 0 1.970 21.80 24 7170
- 0.218942 1 21 ack 40 ------- 0 1.970 21.80 20 6467
- 0.21907 1 21 tcp 40 ------- 0 13.1518 21.774 0 3809
- 0.219198 1 21 tcp 40 ------- 0 16.1076 21.847 0 4400
- 0.219326 1 21 ack 40 ------- 0 0.496 21.22 0 6455
- 0.219454 1 21 tcp 1540 ------- 0 10.1040 21.726 3 3796
r 0.223135 1 21 tcp 1540 ------- 0 4.1266 21.605 6 4711
+ 0.22323 1 21 ack 40 ------- 0 1.970 21.80 25 7337
r 0.223263 1 21 tcp 40 ------- 0 4.1302 21.641 0 4741
r 0.223391 1 21 ack 40 ------- 0 0.482 21.8 9 6091
r 0.223519 1 21 ack 40 ------- 0 0.482 21.8 10 6154
- 0.224382 1 21 ack 40 ------- 0 1.970 21.80 24 7170
- 0.22451 1 21 ack 40 ------- 0 1.970 21.80 25 7337
+ 0.228158 1 21 ack 40 ------- 0 1.970 21.80 26 7506
- 0.228158 1 21 ack 40 ------- 0 1.970 21.80 26 7506
r 0.228447 1 21 tcp 1540 ------- 0 16.1092 21.863 2 4059
r 0.228575 1 21 ack 40 ------- 0 1.970 21.80 20 6467
+ 0.228632 1 21 tcp 1540 ------- 0 16.1096 21.867 3 5085
- 0.228632 1 21 tcp 1540 ------- 0 16.1096 21.867 3 5085
r 0.228703 1 21 tcp 40 ------- 0 13.1518 21.774 0 3809
r 0.228831 1 21 tcp 40 ------- 0 16.1076 21.847 0 4400
r 0.228959 1 21 ack 40 ------- 0 0.496 21.22 0 6455
+ 0.23356 1 21 tcp 1540 ------- 0 16.1096 21.867 4 5086
- 0.23356 1 21 tcp 1540 ------- 0 16.1096 21.867 4 5086
r 0.233887 1 21 tcp 1540 ------- 0 10.1040 21.726 3 3796
r 0.234015 1 21 ack 40 ------- 0 1.970 21.80 24 7170
r 0.234143 1 21 ack 40 ------- 0 1.970 21.80 25 7337
+ 0.236873 1 21 ack 40 ------- 0 0.503 21.29 3 7747
r 0.237791 1 21 ack 40 ------- 0 1.970 21.80 26 7506
+ 0.238488 1 21 tcp 1540 ------- 0 16.1096 21.867 5 5089
- 0.238488 1 21 ack 40 ------- 0 0.503 21.29 3 7747
- 0.238616 1 21 tcp 1540 ------- 0 16.1096 21.867 5 5089
+ 0.241801 1 21 ack 40 ------- 0 0.503 21.29 4 7922
+ 0.242942 1 21 ack 40 ------- 0 1.970 21.80 27 8053
r 0.243065 1 21 tcp 1540 ------- 0 16.1096 21.867 3 5085
+ 0.243416 1 21 tcp 1540 ------- 0 16.1096 21.867 6 5090
- 0.243544 1 21 ack 40 ------- 0 0.503 21.29 4 7922
- 0.243672 1 21 ack 40 ------- 0 1.970 21.80 27 8053
- 0.2438 1 21 tcp 1540 ------- 0 16.1096 21.867 6 5090
+ 0.246729 1 21 ack 40 ------- 0 0.503 21.29 5 8103
+ 0.24787 1 21 ack 40 ------- 0 1.970 21.80 28 8195
r 0.247993 1 21 tcp 1540 ------- 0 16.1096 21.867 4 5086
r 0.248121 1 21 ack 40 ------- 0 0.503 21.29 3 7747
- 0.248728 1 21 ack 40 ------- 0 0.503 21.29 5 8103
- 0.248856 1 21 ack 40 ------- 0 1.970 21.80 28 8195
+ 0.25008 1 21 ack 40 ------- 0 2.648 21.108 1 6894
- 0.25008 1 21 ack 40 ------- 0 2.648 21.108 1 6894
+ 0.250176 1 21 tcp 40 ------- 0 4.1262 21.601 0 7134
- 0.250208 1 21 tcp 40 ------- 0 4.1262 21.601 0 7134
+ 0.252704 1 21 tcp 40 ------- 0 10.1047 21.733 0 5650
- 0.252704 1 21 tcp 40 ------- 0 10.1047 21.733 0 5650
+ 0.252736 1 21 ack 40 ------- 0 2.648 21.108 2 6977
- 0.252832 1 21 ack 40 ------- 0 2.648 21.108 2 6977
r 0.253049 1 21 tcp 1540 ------- 0 16.1096 21.867 5 5089
r 0.253177 1 21 ack 40 ------- 0 0.503 21.29 4 7922
r 0.253305 1 21 ack 40 ------- 0 1.970 21.80 27 8053
+ 0.257696 1 21 ack 40 ------- 0 0.503 21.29 6 8267
- 0.257696 1 21 ack 40 ------- 0 0.503 21.29 6 8267
r 0.258233 1 21 tcp 1540 ------- 0 16.1096 21.867 6 5090
r 0.258361 1 21 ack 40 ------- 0 0.503 21.29 5 8103
r 0.258489 1 21 ack 40 ------- 0 1.970 21.80 28 8195
+ 0.259024 1 21 tcp 1540 ------- 0 4.1313 21.652 3 7335
- 0.259024 1 21 tcp 1540 ------- 0 4.1313 21.652 3 7335
r 0.259713 1 21 ack 40 ------- 0 2.648 21.108 1 6894
r 0.259841 1 21 tcp 40 ------- 0 4.1262 21.601 0 7134
+ 0.260384 1 21 tcp 1540 ------- 0 4.1313 21.652 5 7625
+ 0.26168 1 21 tcp 1540 ------- 0 4.1313 21.652 6 7626
+ 0.261776 1 21 tcp 40 ------- 0 4.1305 21.644 0 7910
r 0.262337 1 21 tcp 40 ------- 0 10.1047 21.733 0 5650
r 0.262465 1 21 ack 40 ------- 0 2.648 21.108 2 6977
- 0.263952 1 21 tcp 1540 ------- 0 4.1313 21.652 5 7625
r 0.267329 1 21 ack 40 ------- 0 0.503 21.29 6 8267
- 0.26888 1 21 tcp 1540 ------- 0 4.1313 21.652 6 7626
+ 0.273345 1 21 tcp 40 ------- 0 15.1393 21.832 0 5845
r 0.273457 1 21 tcp 1540 ------- 0 4.1313 21.652 3 7335
- 0.273808 1 21 tcp 40 ------- 0 4.1305 21.644 0 7910
- 0.273936 1 21 tcp 40 ------- 0 15.1393 21.832 0 5845
+ 0.277632 1 21 tcp 1540 ------- 0 0.1382 21.527 11 8966
- 0.277632 1 21 tcp 1540 ------- 0 0.1382 21.527 11 8966
+ 0.27794 1 21 rtProtoDV 26 ------- 0 1.2013 21.1182 -1 9393
+ 0.278288 1 21 tcp 1540 ------- 0 9.1300 21.694 3 6325
r 0.278385 1 21 tcp 1540 ------- 0 4.1313 21.652 5 7625
+ 0.27952 1 21 tcp 1540 ------- 0 9.1300 21.694 4 6326
+ 0.280216 1 21 tcp 40 ------- 0 16.1110 21.881 0 7560
+ 0.280288 1 21 tcp 1540 ------- 0 15.1372 21.811 1 6490
+ 0.282494 1 21 ack 40 ------- 0 1.970 21.80 29 9592
- 0.28256 1 21 rtProtoDV 26 ------- 0 1.2013 21.1182 -1 9393
- 0.282643 1 21 tcp 1540 ------- 0 9.1300 21.694 3 6325
+ 0.282752 1 21 tcp 1540 ------- 0 15.1372 21.811 2 6491
r 0.283313 1 21 tcp 1540 ------- 0 4.1313 21.652 6 7626
r 0.283441 1 21 tcp 40 ------- 0 4.1305 21.644 0 7910
r 0.283569 1 21 tcp 40 ------- 0 15.1393 21.832 0 5845
+ 0.287422 1 21 ack 40 ------- 0 1.970 21.80 30 9775
- 0.287571 1 21 tcp 1540 ------- 0 9.1300 21.694 4 6326
r 0.292065 1 21 tcp 1540 ------- 0 0.1382 21.527 11 8966
r 0.292148 1 21 rtProtoDV 26 ------- 0 1.2013 21.1182 -1 9393
- 0.292499 1 21 tcp 40 ------- 0 16.1110 21.881 0 7560
+ 0.292606 1 21 ack 40 ------- 0 1.945 21.55 3 9946
- 0.292627 1 21 tcp 1540 ------- 0 15.1372 21.811 1 6490
+ 0.29396 1 21 tcp 40 ------- 0 1.1894 21.551 0 10008
+ 0.295256 1 21 tcp 40 ------- 0 16.1113 21.884 0 8017
r 0.297076 1 21 tcp 1540 ------- 0 9.1300 21.694 3 6325
+ 0.297534 1 21 ack 40 ------- 0 1.945 21.55 4 10198
- 0.297555 1 21 ack 40 ------- 0 1.970 21.80 29 9592
- 0.297683 1 21 tcp 1540 ------- 0 15.1372 21.811 2 6491
r 0.302004 1 21 tcp 1540 ------- 0 9.1300 21.694 4 6326
r 0.302132 1 21 tcp 40 ------- 0 16.1110 21.881 0 7560
+ 0.302462 1 21 ack 40 ------- 0 1.945 21.55 5 10386
- 0.302611 1 21 ack 40 ------- 0 1.970 21.80 30 9775
- 0.302739 1 21 ack 40 ------- 0 1.945 21.55 3 9946
- 0.302867 1 21 tcp 40 ------- 0 1.1894 21.551 0 10008
- 0.302995 1 21 tcp 40 ------- 0 16.1113 21.884 0 8017
- 0.303123 1 21 ack 40 ------- 0 1.945 21.55 4 10198
- 0.303251 1 21 ack 40 ------- 0 1.945 21.55 5 10386
r 0.30706 1 21 tcp 1540 ------- 0 15.1372 21.811 1 6490
r 0.307188 1 21 ack 40 ------- 0 1.970 21.80 29 9592
+ 0.30739 1 21 ack 40 ------- 0 1.945 21.55 6 10588
- 0.30739 1 21 ack 40 ------- 0 1.945 21.55 6 10588
+ 0.309232 1 21 tcp 40 ------- 0 4.1253 21.592 0 9671
- 0.309232 1 21 tcp 40 ------- 0 4.1253 21.592 0 9671
r 0.312116 1 21 tcp 1540 ------- 0 15.1372 21.811 2 6491
r 0.312244 1 21 ack 40 ------- 0 1.970 21.80 30 9775
+ 0.312318 1 21 ack 40 ------- 0 1.970 21.80 31 10794
- 0.312318 1 21 ack 40 ------- 0 1.970 21.80 31 10794
r 0.312372 1 21 ack 40 ------- 0 1.945 21.55 3 9946
r 0.3125 1 21 tcp 40 ------- 0 1.1894 21.551 0 10008
r 0.312628 1 21 tcp 40 ------- 0 16.1113 21.884 0 8017
r 0.312756 1 21 ack 40 ------- 0 1.945 21.55 4 10198
r 0.312884 1 21 ack 40 ------- 0 1.945 21.55 5 10386
r 0.317023 1 21 ack 40 ------- 0 1.945 21.55 6 10588
+ 0.317246 1 21 ack 40 ------- 0 1.970 21.80 32 10984
- 0.317246 1 21 ack 40 ------- 0 1.970 21.80 32 10984
+ 0.318208 1 21 ack 40 ------- 0 0.482 21.8 11 10834
- 0.318208 1 21 ack 40 ------- 0 0.482 21.8 11 10834
r 0.318865 1 21 tcp 40 ------- 0 4.1253 21.592 0 9671
+ 0.319062 1 21 tcp 40 ------- 0 14.1536 21.778 0 7045
- 0.319062 1 21 tcp 40 ------- 0 14.1536 21.778 0 7045
+ 0.319126 1 21 tcp 40 ------- 0 13.1504 21.760 0 7614
- 0.31919 1 21 tcp 40 ------- 0 13.1504 21.760 0 7614
+ 0.32191 1 21 ack 40 ------- 0 0.482 21.8 12 11087
- 0.32191 1 21 ack 40 ------- 0 0.482 21.8 12 11087
r 0.321951 1 21 ack 40 ------- 0 1.970 21.80 31 10794
+ 0.322257 1 21 ack 40 ------- 0 1.970 21.80 33 11206
- 0.322257 1 21 ack 40 ------- 0 1.970 21.80 33 11206
+ 0.325862 1 21 ack 40 ------- 0 18.974 21.383 2 7100
- 0.325862 1 21 ack 40 ------- 0 18.974 21.383 2 7100
+ 0.325894 1 21 ack 40 ------- 0 18.965 21.374 0 7108
- 0.32599 1 21 ack 40 ------- 0 18.965 21.374 0 7108
r 0.326879 1 21 ack 40 ------- 0 1.970 21.80 32 10984
+ 0.327185 1 21 ack 40 ------- 0 1.970 21.80 34 11394
- 0.327185 1 21 ack 40 ------- 0 1.970 21.80 34 11394
r 0.327841 1 21 ack 40 ------- 0 0.482 21.8 11 10834
+ 0.328188 1 21 ack 40 ------- 0 0.482 21.8 13 11353
- 0.328188 1 21 ack 40 ------- 0 0.482 21.8 13 11353
r 0.328696 1 21 tcp 40 ------- 0 14.1536 21.778 0 7045
r 0.328824 1 21 tcp 40 ------- 0 13.1504 21.760 0 7614
r 0.331543 1 21 ack 40 ------- 0 0.482 21.8 12 11087
r 0.33189 1 21 ack 40 ------- 0 1.970 21.80 33 11206
+ 0.332241 1 21 ack 40 ------- 0 1.970 21.80 35 11606
- 0.332241 1 21 ack 40 ------- 0 1.970 21.80 35 11606
+ 0.333008 1 21 ack 40 ------- 0 9.959 21.277 3 8429
- 0.333008 1 21 ack 40 ------- 0 9.959 21.277 3 8429
+ 0.33304 1 21 ack 40 ------- 0 9.959 21.277 4 8467
- 0.333136 1 21 ack 40 ------- 0 9.959 21.277 4 8467
+ 0.333621 1 21 ack 40 ------- 0 0.482 21.8 14 11398
- 0.333621 1 21 ack 40 ------- 0 0.482 21.8 14 11398
r 0.335495 1 21 ack 40 ------- 0 18.974 21.383 2 7100
r 0.335623 1 21 ack 40 ------- 0 18.965 21.374 0 7108
r 0.336818 1 21 ack 40 ------- 0 1.970 21.80 34 11394
+ 0.337169 1 21 ack 40 ------- 0 1.970 21.80 36 11813
- 0.337169 1 21 ack 40 ------- 0 1.970 21.80 36 11813
r 0.337821 1 21 ack 40 ------- 0 0.482 21.8 13 11353
+ 0.338581 1 21 ack 40 ------- 0 0.482 21.8 15 11454
- 0.338581 1 21 ack 40 ------- 0 0.482 21.8 15 11454
r 0.341874 1 21 ack 40 ------- 0 1.970 21.80 35 11606
+ 0.342097 1 21 ack 40 ------- 0 1.970 21.80 37 12021
- 0.342097 1 21 ack 40 ------- 0 1.970 21.80 37 12021
r 0.342642 1 21 ack 40 ------- 0 9.959 21.277 3 8429
r 0.34277 1 21 ack 40 ------- 0 9.959 21.277 4 8467
r 0.343254 1 21 ack 40 ------- 0 0.482 21.8 14 11398
+ 0.344578 1 21 tcp 40 ------- 0 1.1875 21.532 0 12127
- 0.344578 1 21 tcp 40 ------- 0 1.1875 21.532 0 12127
r 0.346802 1 21 ack 40 ------- 0 1.970 21.80 36 11813
+ 0.347025 1 21 ack 40 ------- 0 1.970 21.80 38 12206
- 0.347025 1 21 ack 40 ------- 0 1.970 21.80 38 12206
+ 0.347281 1 21 tcp 1540 ------- 0 1.1890 21.547 3 12216
- 0.347281 1 21 tcp 1540 ------- 0 1.1890 21.547 3 12216
+ 0.347281 1 21 tcp 1540 ------- 0 1.1890 21.547 4 12217
+ 0.347409 1 21 tcp 1540 ------- 0 1.1890 21.547 5 12219
+ 0.347409 1 21 tcp 1540 ------- 0 1.1890 21.547 6 12220
+ 0.347525 1 21 tcp 1540 ------- 0 10.1053 21.739 1 10212
r 0.348214 1 21 ack 40 ------- 0 0.482 21.8 15 11454