+ 0.003055 2 18 rtProtoDV 26 ------- 0 2.1272 18.1037 -1 41
- 0.003055 2 18 rtProtoDV 26 ------- 0 2.1272 18.1037 -1 41
+ 0.005097 2 18 rtProtoDV 26 ------- 0 2.1272 18.1037 -1 81
- 0.005097 2 18 rtProtoDV 26 ------- 0 2.1272 18.1037 -1 81
r 0.005223 2 18 rtProtoDV 26 ------- 0 2.1272 18.1037 -1 41
+ 0.007102 2 18 rtProtoDV 26 ------- 0 2.1272 18.1037 -1 157
- 0.007102 2 18 rtProtoDV 26 ------- 0 2.1272 18.1037 -1 157
+ 0.007214 2 18 rtProtoDV 26 ------- 0 2.1272 18.1037 -1 167
- 0.007214 2 18 rtProtoDV 26 ------- 0 2.1272 18.1037 -1 167
r 0.007264 2 18 rtProtoDV 26 ------- 0 2.1272 18.1037 -1 81
+ 0.008006 2 18 rtProtoDV 26 ------- 0 2.1272 18.1037 -1 203
- 0.008006 2 18 rtProtoDV 26 ------- 0 2.1272 18.1037 -1 203
+ 0.008017 2 18 rtProtoDV 26 ------- 0 2.1272 18.1037 -1 207
- 0.008027 2 18 rtProtoDV 26 ------- 0 2.1272 18.1037 -1 207
r 0.00927 2 18 rtProtoDV 26 ------- 0 2.1272 18.1037 -1 157
r 0.009381 2 18 rtProtoDV 26 ------- 0 2.1272 18.1037 -1 167
r 0.010173 2 18 rtProtoDV 26 ------- 0 2.1272 18.1037 -1 203
r 0.010194 2 18 rtProtoDV 26 ------- 0 2.1272 18.1037 -1 207
+ 0.011045 2 18 rtProtoDV 26 ------- 0 2.1272 18.1037 -1 367
- 0.011045 2 18 rtProtoDV 26 ------- 0 2.1272 18.1037 -1 367
+ 0.011658 2 18 rtProtoDV 26 ------- 0 2.1272 18.1037 -1 406
- 0.011658 2 18 rtProtoDV 26 ------- 0 2.1272 18.1037 -1 406
r 0.013213 2 18 rtProtoDV 26 ------- 0 2.1272 18.1037 -1 367
+ 0.013786 2 18 rtProtoDV 26 ------- 0 2.1272 18.1037 -1 507
- 0.013786 2 18 rtProtoDV 26 ------- 0 2.1272 18.1037 -1 507
r 0.013826 2 18 rtProtoDV 26 ------- 0 2.1272 18.1037 -1 406
+ 0.014173 2 18 rtProtoDV 26 ------- 0 2.1272 18.1037 -1 527
- 0.014173 2 18 rtProtoDV 26 ------- 0 2.1272 18.1037 -1 527
r 0.015954 2 18 rtProtoDV 26 ------- 0 2.1272 18.1037 -1 507
r 0.016341 2 18 rtProtoDV 26 ------- 0 2.1272 18.1037 -1 527
+ 0.017693 2 18 rtProtoDV 26 ------- 0 2.1272 18.1037 -1 667
- 0.017693 2 18 rtProtoDV 26 ------- 0 2.1272 18.1037 -1 667
r 0.01986 2 18 rtProtoDV 26 ------- 0 2.1272 18.1037 -1 667
+ 0.021447 2 18 tcp 40 ------- 0 13.1383 18.631 0 519
- 0.021447 2 18 tcp 40 ------- 0 13.1383 18.631 0 519
r 0.023625 2 18 tcp 40 ------- 0 13.1383 18.631 0 519
+ 0.027543 2 18 ack 40 ------- 0 16.783 18.294 0 765
- 0.027543 2 18 ack 40 ------- 0 16.783 18.294 0 765
r 0.029722 2 18 ack 40 ------- 0 16.783 18.294 0 765
+ 0.031013 2 18 tcp 40 ------- 0 12.1066 18.581 0 886
- 0.031013 2 18 tcp 40 ------- 0 12.1066 18.581 0 886
r 0.033192 2 18 tcp 40 ------- 0 12.1066 18.581 0 886
+ 0.051187 2 18 ack 40 ------- 0 16.783 18.294 1 1347
- 0.051187 2 18 ack 40 ------- 0 16.783 18.294 1 1347
r 0.053366 2 18 ack 40 ------- 0 16.783 18.294 1 1347
+ 0.061171 2 18 ack 40 ------- 0 16.783 18.294 2 1473
- 0.061171 2 18 ack 40 ------- 0 16.783 18.294 2 1473
r 0.06335 2 18 ack 40 ------- 0 16.783 18.294 2 1473
+ 0.08615 2 18 ack 40 ------- 0 16.783 18.294 3 2201
- 0.08615 2 18 ack 40 ------- 0 16.783 18.294 3 2201
r 0.088329 2 18 ack 40 ------- 0 16.783 18.294 3 2201
+ 0.096134 2 18 ack 40 ------- 0 16.783 18.294 4 2377
- 0.096134 2 18 ack 40 ------- 0 16.783 18.294 4 2377
r 0.098313 2 18 ack 40 ------- 0 16.783 18.294 4 2377
+ 0.106118 2 18 ack 40 ------- 0 16.782 18.293 0 2390
- 0.106118 2 18 ack 40 ------- 0 16.782 18.293 0 2390
r 0.108297 2 18 ack 40 ------- 0 16.782 18.293 0 2390
+ 0.11038 2 18 tcp 40 ------- 0 6.1313 18.396 0 2105
- 0.11038 2 18 tcp 40 ------- 0 6.1313 18.396 0 2105
r 0.112559 2 18 tcp 40 ------- 0 6.1313 18.396 0 2105
+ 0.114268 2 18 tcp 1540 ------- 0 13.1383 18.631 1 1700
- 0.114268 2 18 tcp 1540 ------- 0 13.1383 18.631 1 1700
+ 0.116314 2 18 ack 40 ------- 0 16.783 18.294 5 2556
- 0.116314 2 18 ack 40 ------- 0 16.783 18.294 5 2556
+ 0.116442 2 18 ack 40 ------- 0 16.783 18.294 6 2723
- 0.116442 2 18 ack 40 ------- 0 16.783 18.294 6 2723
r 0.117647 2 18 tcp 1540 ------- 0 13.1383 18.631 1 1700
+ 0.11806 2 18 tcp 1540 ------- 0 13.1383 18.631 2 1701
- 0.11806 2 18 tcp 1540 ------- 0 13.1383 18.631 2 1701
r 0.118492 2 18 ack 40 ------- 0 16.783 18.294 5 2556
r 0.11862 2 18 ack 40 ------- 0 16.783 18.294 6 2723
r 0.121439 2 18 tcp 1540 ------- 0 13.1383 18.631 2 1701
+ 0.145548 2 18 tcp 40 ------- 0 10.888 18.462 0 3423
- 0.145548 2 18 tcp 40 ------- 0 10.888 18.462 0 3423
+ 0.147034 2 18 tcp 40 ------- 0 16.1002 18.838 0 3532
- 0.147034 2 18 tcp 40 ------- 0 16.1002 18.838 0 3532
+ 0.147162 2 18 ack 40 ------- 0 16.783 18.294 7 3663
- 0.147162 2 18 ack 40 ------- 0 16.783 18.294 7 3663
+ 0.14729 2 18 ack 40 ------- 0 16.783 18.294 8 3825
- 0.14729 2 18 ack 40 ------- 0 16.783 18.294 8 3825
r 0.147727 2 18 tcp 40 ------- 0 10.888 18.462 0 3423
r 0.149212 2 18 tcp 40 ------- 0 16.1002 18.838 0 3532
r 0.14934 2 18 ack 40 ------- 0 16.783 18.294 7 3663
r 0.149468 2 18 ack 40 ------- 0 16.783 18.294 8 3825
+ 0.1543 2 18 ack 40 ------- 0 11.931 22.308 0 2602
- 0.1543 2 18 ack 40 ------- 0 11.931 22.308 0 2602
+ 0.154778 2 18 tcp 40 ------- 0 2.1214 22.684 0 4839
- 0.154778 2 18 tcp 40 ------- 0 2.1214 22.684 0 4839
r 0.156479 2 18 ack 40 ------- 0 11.931 22.308 0 2602
r 0.156956 2 18 tcp 40 ------- 0 2.1214 22.684 0 4839
+ 0.157274 2 18 ack 40 ------- 0 16.783 18.294 9 4005
- 0.157274 2 18 ack 40 ------- 0 16.783 18.294 9 4005
+ 0.157402 2 18 ack 40 ------- 0 16.783 18.294 10 4149
- 0.157402 2 18 ack 40 ------- 0 16.783 18.294 10 4149
r 0.159452 2 18 ack 40 ------- 0 16.783 18.294 9 4005
r 0.15958 2 18 ack 40 ------- 0 16.783 18.294 10 4149
+ 0.167111 2 18 ack 40 ------- 0 2.685 22.76 0 5303
- 0.167111 2 18 ack 40 ------- 0 2.685 22.76 0 5303
r 0.169289 2 18 ack 40 ------- 0 2.685 22.76 0 5303
+ 0.173004 2 18 tcp 1540 ------- 0 12.1066 18.581 1 2687
- 0.173004 2 18 tcp 1540 ------- 0 12.1066 18.581 1 2687
r 0.176383 2 18 tcp 1540 ------- 0 12.1066 18.581 1 2687
+ 0.177242 2 18 ack 40 ------- 0 16.782 18.293 1 4312
- 0.177242 2 18 ack 40 ------- 0 16.782 18.293 1 4312
+ 0.17737 2 18 ack 40 ------- 0 16.782 18.293 2 4477
- 0.17737 2 18 ack 40 ------- 0 16.782 18.293 2 4477
r 0.17942 2 18 ack 40 ------- 0 16.782 18.293 1 4312
r 0.179548 2 18 ack 40 ------- 0 16.782 18.293 2 4477
+ 0.182892 2 18 tcp 1540 ------- 0 12.1066 18.581 2 2688
- 0.182892 2 18 tcp 1540 ------- 0 12.1066 18.581 2 2688
r 0.186271 2 18 tcp 1540 ------- 0 12.1066 18.581 2 2688
+ 0.19054 2 18 tcp 40 ------- 0 12.1054 18.569 0 3230
- 0.19054 2 18 tcp 40 ------- 0 12.1054 18.569 0 3230
r 0.192719 2 18 tcp 40 ------- 0 12.1054 18.569 0 3230
+ 0.194268 2 18 tcp 1540 ------- 0 10.888 18.462 1 4758
- 0.194268 2 18 tcp 1540 ------- 0 10.888 18.462 1 4758
+ 0.1955 2 18 tcp 1540 ------- 0 10.888 18.462 2 4759
- 0.1955 2 18 tcp 1540 ------- 0 10.888 18.462 2 4759
+ 0.19721 2 18 ack 40 ------- 0 16.783 18.294 11 4673
- 0.19721 2 18 ack 40 ------- 0 16.783 18.294 11 4673
+ 0.197338 2 18 ack 40 ------- 0 16.783 18.294 12 4843
- 0.197338 2 18 ack 40 ------- 0 16.783 18.294 12 4843
+ 0.197594 2 18 ack 40 ------- 0 16.783 18.294 13 5000
- 0.197594 2 18 ack 40 ------- 0 16.783 18.294 13 5000
r 0.197647 2 18 tcp 1540 ------- 0 10.888 18.462 1 4758
+ 0.197722 2 18 ack 40 ------- 0 16.902 22.483 0 5003
- 0.197722 2 18 ack 40 ------- 0 16.902 22.483 0 5003
r 0.198879 2 18 tcp 1540 ------- 0 10.888 18.462 2 4759
r 0.199388 2 18 ack 40 ------- 0 16.783 18.294 11 4673
r 0.199516 2 18 ack 40 ------- 0 16.783 18.294 12 4843
r 0.199772 2 18 ack 40 ------- 0 16.783 18.294 13 5000
r 0.1999 2 18 ack 40 ------- 0 16.902 22.483 0 5003
+ 0.200388 2 18 ack 40 ------- 0 2.524 18.61 0 6526
- 0.200388 2 18 ack 40 ------- 0 2.524 18.61 0 6526
r 0.202566 2 18 ack 40 ------- 0 2.524 18.61 0 6526
+ 0.210159 2 18 ack 40 ------- 0 2.524 18.61 1 6850
- 0.210159 2 18 ack 40 ------- 0 2.524 18.61 1 6850
+ 0.210529 2 18 tcp 1540 ------- 0 6.1313 18.396 1 4571
- 0.210529 2 18 tcp 1540 ------- 0 6.1313 18.396 1 4571
+ 0.211391 2 18 ack 40 ------- 0 2.524 18.61 2 6912
- 0.211761 2 18 ack 40 ------- 0 2.524 18.61 2 6912
+ 0.211889 2 18 tcp 1540 ------- 0 6.1313 18.396 2 4572
- 0.211889 2 18 tcp 1540 ------- 0 6.1313 18.396 2 4572
r 0.212338 2 18 ack 40 ------- 0 2.524 18.61 1 6850
r 0.213908 2 18 tcp 1540 ------- 0 6.1313 18.396 1 4571
r 0.21394 2 18 ack 40 ------- 0 2.524 18.61 2 6912
r 0.215268 2 18 tcp 1540 ------- 0 6.1313 18.396 2 4572
+ 0.215716 2 18 ack 40 ------- 0 2.524 18.61 3 7079
- 0.215716 2 18 ack 40 ------- 0 2.524 18.61 3 7079
+ 0.216948 2 18 ack 40 ------- 0 2.524 18.61 4 7120
- 0.216948 2 18 ack 40 ------- 0 2.524 18.61 4 7120
r 0.217895 2 18 ack 40 ------- 0 2.524 18.61 3 7079
+ 0.21818 2 18 ack 40 ------- 0 2.524 18.61 5 7164
- 0.21818 2 18 ack 40 ------- 0 2.524 18.61 5 7164
r 0.219127 2 18 ack 40 ------- 0 2.524 18.61 4 7120
+ 0.219412 2 18 ack 40 ------- 0 2.524 18.61 6 7200
- 0.219412 2 18 ack 40 ------- 0 2.524 18.61 6 7200
r 0.220359 2 18 ack 40 ------- 0 2.524 18.61 5 7164
+ 0.221273 2 18 ack 40 ------- 0 2.524 18.61 7 7258
- 0.221273 2 18 ack 40 ------- 0 2.524 18.61 7 7258
r 0.221591 2 18 ack 40 ------- 0 2.524 18.61 6 7200
+ 0.222505 2 18 ack 40 ------- 0 2.524 18.61 8 7303
- 0.222505 2 18 ack 40 ------- 0 2.524 18.61 8 7303
r 0.223452 2 18 ack 40 ------- 0 2.524 18.61 7 7258
+ 0.223737 2 18 ack 40 ------- 0 2.524 18.61 9 7358
- 0.223737 2 18 ack 40 ------- 0 2.524 18.61 9 7358
r 0.224684 2 18 ack 40 ------- 0 2.524 18.61 8 7303
+ 0.224969 2 18 ack 40 ------- 0 2.524 18.61 10 7393
- 0.224969 2 18 ack 40 ------- 0 2.524 18.61 10 7393
r 0.225916 2 18 ack 40 ------- 0 2.524 18.61 9 7358
+ 0.226201 2 18 ack 40 ------- 0 2.524 18.61 11 7435
- 0.226201 2 18 ack 40 ------- 0 2.524 18.61 11 7435
r 0.227148 2 18 ack 40 ------- 0 2.524 18.61 10 7393
+ 0.227433 2 18 ack 40 ------- 0 2.524 18.61 12 7485
- 0.227433 2 18 ack 40 ------- 0 2.524 18.61 12 7485
r 0.22838 2 18 ack 40 ------- 0 2.524 18.61 11 7435
+ 0.228665 2 18 ack 40 ------- 0 2.524 18.61 13 7531
- 0.228665 2 18 ack 40 ------- 0 2.524 18.61 13 7531
+ 0.229521 2 18 tcp 1540 ------- 0 10.888 18.462 3 6602
- 0.229521 2 18 tcp 1540 ------- 0 10.888 18.462 3 6602
r 0.229612 2 18 ack 40 ------- 0 2.524 18.61 12 7485
+ 0.229897 2 18 ack 40 ------- 0 2.524 18.61 14 7579
+ 0.230753 2 18 tcp 1540 ------- 0 10.888 18.462 4 6603
- 0.230753 2 18 ack 40 ------- 0 2.524 18.61 14 7579
+ 0.230785 2 18 ack 40 ------- 0 11.973 22.350 0 5499
- 0.230785 2 18 tcp 1540 ------- 0 10.888 18.462 4 6603
r 0.230844 2 18 ack 40 ------- 0 2.524 18.61 13 7531
+ 0.231129 2 18 ack 40 ------- 0 2.524 18.61 15 7624
- 0.232017 2 18 ack 40 ------- 0 11.973 22.350 0 5499
- 0.232049 2 18 ack 40 ------- 0 2.524 18.61 15 7624
+ 0.232081 2 18 tcp 1540 ------- 0 10.888 18.462 5 6640
- 0.232081 2 18 tcp 1540 ------- 0 10.888 18.462 5 6640
+ 0.232361 2 18 ack 40 ------- 0 2.524 18.61 16 7677
r 0.2329 2 18 tcp 1540 ------- 0 10.888 18.462 3 6602
r 0.232932 2 18 ack 40 ------- 0 2.524 18.61 14 7579
+ 0.233313 2 18 tcp 1540 ------- 0 10.888 18.462 6 6641
- 0.233313 2 18 ack 40 ------- 0 2.524 18.61 16 7677
- 0.233345 2 18 tcp 1540 ------- 0 10.888 18.462 6 6641
+ 0.233593 2 18 ack 40 ------- 0 2.524 18.61 17 7722
r 0.234164 2 18 tcp 1540 ------- 0 10.888 18.462 4 6603
r 0.234196 2 18 ack 40 ------- 0 11.973 22.350 0 5499
r 0.234228 2 18 ack 40 ------- 0 2.524 18.61 15 7624
- 0.234577 2 18 ack 40 ------- 0 2.524 18.61 17 7722
+ 0.234641 2 18 ack 40 ------- 0 9.906 18.145 0 5925
- 0.234641 2 18 ack 40 ------- 0 9.906 18.145 0 5925
+ 0.234825 2 18 ack 40 ------- 0 2.524 18.61 18 7751
- 0.234825 2 18 ack 40 ------- 0 2.524 18.61 18 7751
r 0.23546 2 18 tcp 1540 ------- 0 10.888 18.462 5 6640
r 0.235492 2 18 ack 40 ------- 0 2.524 18.61 16 7677
+ 0.236057 2 18 ack 40 ------- 0 2.524 18.61 19 7794
- 0.236057 2 18 ack 40 ------- 0 2.524 18.61 19 7794
r 0.236724 2 18 tcp 1540 ------- 0 10.888 18.462 6 6641
r 0.236756 2 18 ack 40 ------- 0 2.524 18.61 17 7722
r 0.23682 2 18 ack 40 ------- 0 9.906 18.145 0 5925
r 0.237004 2 18 ack 40 ------- 0 2.524 18.61 18 7751
+ 0.237289 2 18 ack 40 ------- 0 2.524 18.61 20 7848
- 0.237289 2 18 ack 40 ------- 0 2.524 18.61 20 7848
r 0.238236 2 18 ack 40 ------- 0 2.524 18.61 19 7794
+ 0.238553 2 18 ack 40 ------- 0 2.524 18.61 21 7893
- 0.238553 2 18 ack 40 ------- 0 2.524 18.61 21 7893
r 0.239468 2 18 ack 40 ------- 0 2.524 18.61 20 7848
+ 0.239785 2 18 ack 40 ------- 0 2.524 18.61 22 7929
- 0.239785 2 18 ack 40 ------- 0 2.524 18.61 22 7929
r 0.240732 2 18 ack 40 ------- 0 2.524 18.61 21 7893
+ 0.241017 2 18 ack 40 ------- 0 2.524 18.61 23 7966
- 0.241017 2 18 ack 40 ------- 0 2.524 18.61 23 7966
r 0.241964 2 18 ack 40 ------- 0 2.524 18.61 22 7929
+ 0.242249 2 18 ack 40 ------- 0 2.524 18.61 24 8021
- 0.242249 2 18 ack 40 ------- 0 2.524 18.61 24 8021
r 0.243196 2 18 ack 40 ------- 0 2.524 18.61 23 7966
+ 0.243481 2 18 ack 40 ------- 0 2.524 18.61 25 8071
- 0.243481 2 18 ack 40 ------- 0 2.524 18.61 25 8071
r 0.244428 2 18 ack 40 ------- 0 2.524 18.61 24 8021
+ 0.244713 2 18 ack 40 ------- 0 2.524 18.61 26 8108
- 0.244713 2 18 ack 40 ------- 0 2.524 18.61 26 8108
r 0.24566 2 18 ack 40 ------- 0 2.524 18.61 25 8071
+ 0.245977 2 18 ack 40 ------- 0 2.524 18.61 27 8143
- 0.245977 2 18 ack 40 ------- 0 2.524 18.61 27 8143
r 0.246892 2 18 ack 40 ------- 0 2.524 18.61 26 8108
+ 0.247209 2 18 ack 40 ------- 0 2.524 18.61 28 8179
- 0.247209 2 18 ack 40 ------- 0 2.524 18.61 28 8179
r 0.248156 2 18 ack 40 ------- 0 2.524 18.61 27 8143
+ 0.248505 2 18 ack 40 ------- 0 2.524 18.61 29 8218
- 0.248505 2 18 ack 40 ------- 0 2.524 18.61 29 8218
r 0.249388 2 18 ack 40 ------- 0 2.524 18.61 28 8179
+ 0.249737 2 18 ack 40 ------- 0 2.524 18.61 30 8269
- 0.249737 2 18 ack 40 ------- 0 2.524 18.61 30 8269
r 0.250684 2 18 ack 40 ------- 0 2.524 18.61 29 8218
+ 0.251001 2 18 ack 40 ------- 0 2.524 18.61 31 8327
- 0.251001 2 18 ack 40 ------- 0 2.524 18.61 31 8327
r 0.251916 2 18 ack 40 ------- 0 2.524 18.61 30 8269
+ 0.252233 2 18 ack 40 ------- 0 2.524 18.61 32 8365
- 0.252233 2 18 ack 40 ------- 0 2.524 18.61 32 8365
r 0.25318 2 18 ack 40 ------- 0 2.524 18.61 31 8327
+ 0.253497 2 18 ack 40 ------- 0 2.524 18.61 33 8417
- 0.253497 2 18 ack 40 ------- 0 2.524 18.61 33 8417
r 0.254412 2 18 ack 40 ------- 0 2.524 18.61 32 8365
+ 0.254729 2 18 ack 40 ------- 0 2.524 18.61 34 8452
- 0.254729 2 18 ack 40 ------- 0 2.524 18.61 34 8452
r 0.255676 2 18 ack 40 ------- 0 2.524 18.61 33 8417
+ 0.255993 2 18 ack 40 ------- 0 2.524 18.61 35 8495
- 0.255993 2 18 ack 40 ------- 0 2.524 18.61 35 8495
r 0.256908 2 18 ack 40 ------- 0 2.524 18.61 34 8452
+ 0.256986 2 18 tcp 1540 ------- 0 16.1002 18.838 1 5047
- 0.256986 2 18 tcp 1540 ------- 0 16.1002 18.838 1 5047
+ 0.257225 2 18 ack 40 ------- 0 2.524 18.61 36 8540
r 0.258172 2 18 ack 40 ------- 0 2.524 18.61 35 8495
- 0.258218 2 18 ack 40 ------- 0 2.524 18.61 36 8540
+ 0.258433 2 18 tcp 40 ------- 0 12.1081 18.596 0 4621
- 0.258433 2 18 tcp 40 ------- 0 12.1081 18.596 0 4621
+ 0.259729 2 18 tcp 40 ------- 0 10.892 18.466 0 7881
- 0.259729 2 18 tcp 40 ------- 0 10.892 18.466 0 7881
r 0.260364 2 18 tcp 1540 ------- 0 16.1002 18.838 1 5047
r 0.260396 2 18 ack 40 ------- 0 2.524 18.61 36 8540
r 0.260612 2 18 tcp 40 ------- 0 12.1081 18.596 0 4621
+ 0.260921 2 18 ack 40 ------- 0 2.524 18.61 37 8667
- 0.260921 2 18 ack 40 ------- 0 2.524 18.61 37 8667
r 0.261908 2 18 tcp 40 ------- 0 10.892 18.466 0 7881
+ 0.261914 2 18 tcp 1540 ------- 0 16.1002 18.838 2 5048
- 0.261914 2 18 tcp 1540 ------- 0 16.1002 18.838 2 5048
+ 0.262153 2 18 ack 40 ------- 0 2.524 18.61 38 8720
r 0.2631 2 18 ack 40 ------- 0 2.524 18.61 37 8667
- 0.263146 2 18 ack 40 ------- 0 2.524 18.61 38 8720
+ 0.263385 2 18 ack 40 ------- 0 2.524 18.61 39 8777
- 0.263385 2 18 ack 40 ------- 0 2.524 18.61 39 8777
+ 0.263713 2 18 ack 40 ------- 0 10.650 18.149 0 8180
- 0.263713 2 18 ack 40 ------- 0 10.650 18.149 0 8180
+ 0.264617 2 18 ack 40 ------- 0 2.524 18.61 40 8813
- 0.264617 2 18 ack 40 ------- 0 2.524 18.61 40 8813
r 0.265292 2 18 tcp 1540 ------- 0 16.1002 18.838 2 5048
r 0.265324 2 18 ack 40 ------- 0 2.524 18.61 38 8720
r 0.265564 2 18 ack 40 ------- 0 2.524 18.61 39 8777
+ 0.265849 2 18 ack 40 ------- 0 2.524 18.61 41 8847
- 0.265849 2 18 ack 40 ------- 0 2.524 18.61 41 8847
r 0.265892 2 18 ack 40 ------- 0 10.650 18.149 0 8180
r 0.266796 2 18 ack 40 ------- 0 2.524 18.61 40 8813
+ 0.267081 2 18 ack 40 ------- 0 2.524 18.61 42 8900
- 0.267081 2 18 ack 40 ------- 0 2.524 18.61 42 8900
r 0.268028 2 18 ack 40 ------- 0 2.524 18.61 41 8847
+ 0.268313 2 18 ack 40 ------- 0 2.524 18.61 43 8951
- 0.268313 2 18 ack 40 ------- 0 2.524 18.61 43 8951
r 0.26926 2 18 ack 40 ------- 0 2.524 18.61 42 8900
+ 0.269545 2 18 ack 40 ------- 0 2.524 18.61 44 9012
- 0.269545 2 18 ack 40 ------- 0 2.524 18.61 44 9012
r 0.270492 2 18 ack 40 ------- 0 2.524 18.61 43 8951
+ 0.270777 2 18 ack 40 ------- 0 2.524 18.61 45 9075
- 0.270777 2 18 ack 40 ------- 0 2.524 18.61 45 9075
r 0.271724 2 18 ack 40 ------- 0 2.524 18.61 44 9012
+ 0.271898 2 18 ack 40 ------- 0 16.783 18.294 13 5258
- 0.271898 2 18 ack 40 ------- 0 16.783 18.294 13 5258
+ 0.272009 2 18 ack 40 ------- 0 2.524 18.61 46 9131
- 0.272009 2 18 ack 40 ------- 0 2.524 18.61 46 9131
+ 0.272026 2 18 ack 40 ------- 0 16.783 18.294 13 5452
- 0.272041 2 18 ack 40 ------- 0 16.783 18.294 13 5452
+ 0.272282 2 18 ack 40 ------- 0 16.783 18.294 13 5671
- 0.272282 2 18 ack 40 ------- 0 16.783 18.294 13 5671
+ 0.272433 2 18 tcp 1540 ------- 0 10.888 18.462 7 8315
- 0.272433 2 18 tcp 1540 ------- 0 10.888 18.462 7 8315
r 0.272956 2 18 ack 40 ------- 0 2.524 18.61 45 9075
+ 0.273241 2 18 ack 40 ------- 0 2.524 18.61 47 9173
+ 0.273665 2 18 tcp 1540 ------- 0 10.888 18.462 8 8316
- 0.273665 2 18 ack 40 ------- 0 2.524 18.61 47 9173
- 0.273697 2 18 tcp 1540 ------- 0 10.888 18.462 8 8316
r 0.274076 2 18 ack 40 ------- 0 16.783 18.294 13 5258
r 0.274188 2 18 ack 40 ------- 0 2.524 18.61 46 9131
r 0.27422 2 18 ack 40 ------- 0 16.783 18.294 13 5452
r 0.27446 2 18 ack 40 ------- 0 16.783 18.294 13 5671
+ 0.274473 2 18 ack 40 ------- 0 2.524 18.61 48 9243
- 0.274929 2 18 ack 40 ------- 0 2.524 18.61 48 9243
+ 0.275705 2 18 ack 40 ------- 0 2.524 18.61 49 9303
- 0.275705 2 18 ack 40 ------- 0 2.524 18.61 49 9303
r 0.275812 2 18 tcp 1540 ------- 0 10.888 18.462 7 8315
r 0.275844 2 18 ack 40 ------- 0 2.524 18.61 47 9173
+ 0.276937 2 18 ack 40 ------- 0 2.524 18.61 50 9343
- 0.276937 2 18 ack 40 ------- 0 2.524 18.61 50 9343
r 0.277076 2 18 tcp 1540 ------- 0 10.888 18.462 8 8316
r 0.277108 2 18 ack 40 ------- 0 2.524 18.61 48 9243
+ 0.277361 2 18 tcp 1540 ------- 0 10.888 18.462 9 8366
- 0.277361 2 18 tcp 1540 ------- 0 10.888 18.462 9 8366
r 0.277884 2 18 ack 40 ------- 0 2.524 18.61 49 9303
+ 0.278169 2 18 ack 40 ------- 0 2.524 18.61 51 9401
+ 0.278593 2 18 tcp 1540 ------- 0 10.888 18.462 10 8367
- 0.278593 2 18 ack 40 ------- 0 2.524 18.61 51 9401
- 0.278625 2 18 tcp 1540 ------- 0 10.888 18.462 10 8367
r 0.279116 2 18 ack 40 ------- 0 2.524 18.61 50 9343
+ 0.279401 2 18 ack 40 ------- 0 2.524 18.61 52 9470
- 0.279857 2 18 ack 40 ------- 0 2.524 18.61 52 9470
+ 0.280633 2 18 ack 40 ------- 0 2.524 18.61 53 9509
- 0.280633 2 18 ack 40 ------- 0 2.524 18.61 53 9509
r 0.28074 2 18 tcp 1540 ------- 0 10.888 18.462 9 8366
r 0.280772 2 18 ack 40 ------- 0 2.524 18.61 51 9401
+ 0.281865 2 18 ack 40 ------- 0 2.524 18.61 54 9556
- 0.281865 2 18 ack 40 ------- 0 2.524 18.61 54 9556
r 0.282004 2 18 tcp 1540 ------- 0 10.888 18.462 10 8367
r 0.282036 2 18 ack 40 ------- 0 2.524 18.61 52 9470
+ 0.282394 2 18 ack 40 ------- 0 16.783 18.294 13 5846
- 0.282394 2 18 ack 40 ------- 0 16.783 18.294 13 5846
+ 0.282522 2 18 ack 40 ------- 0 16.783 18.294 13 6013
- 0.282522 2 18 ack 40 ------- 0 16.783 18.294 13 6013
+ 0.282778 2 18 ack 40 ------- 0 16.783 18.294 13 6179
- 0.282778 2 18 ack 40 ------- 0 16.783 18.294 13 6179
r 0.282812 2 18 ack 40 ------- 0 2.524 18.61 53 9509
+ 0.282906 2 18 ack 40 ------- 0 16.783 18.294 13 6347
- 0.282906 2 18 ack 40 ------- 0 16.783 18.294 13 6347
+ 0.283097 2 18 ack 40 ------- 0 2.524 18.61 55 9619
- 0.283097 2 18 ack 40 ------- 0 2.524 18.61 55 9619
r 0.284044 2 18 ack 40 ------- 0 2.524 18.61 54 9556
+ 0.284361 2 18 ack 40 ------- 0 2.524 18.61 56 9670
- 0.284361 2 18 ack 40 ------- 0 2.524 18.61 56 9670
r 0.284572 2 18 ack 40 ------- 0 16.783 18.294 13 5846
r 0.2847 2 18 ack 40 ------- 0 16.783 18.294 13 6013
r 0.284956 2 18 ack 40 ------- 0 16.783 18.294 13 6179
r 0.285084 2 18 ack 40 ------- 0 16.783 18.294 13 6347
r 0.285276 2 18 ack 40 ------- 0 2.524 18.61 55 9619
+ 0.285657 2 18 ack 40 ------- 0 2.524 18.61 57 9722
- 0.285657 2 18 ack 40 ------- 0 2.524 18.61 57 9722
r 0.28654 2 18 ack 40 ------- 0 2.524 18.61 56 9670
+ 0.286921 2 18 ack 40 ------- 0 2.524 18.61 58 9756
- 0.286921 2 18 ack 40 ------- 0 2.524 18.61 58 9756
+ 0.287281 2 18 tcp 1540 ------- 0 10.888 18.462 11 8515
- 0.287281 2 18 tcp 1540 ------- 0 10.888 18.462 11 8515
r 0.287836 2 18 ack 40 ------- 0 2.524 18.61 57 9722
+ 0.288153 2 18 ack 40 ------- 0 2.524 18.61 59 9803
+ 0.288513 2 18 tcp 1540 ------- 0 10.888 18.462 12 8516
- 0.288513 2 18 ack 40 ------- 0 2.524 18.61 59 9803
- 0.288545 2 18 tcp 1540 ------- 0 10.888 18.462 12 8516
r 0.2891 2 18 ack 40 ------- 0 2.524 18.61 58 9756
+ 0.289745 2 18 tcp 1540 ------- 0 10.888 18.462 13 8563
- 0.289777 2 18 tcp 1540 ------- 0 10.888 18.462 13 8563
r 0.29066 2 18 tcp 1540 ------- 0 10.888 18.462 11 8515
r 0.290692 2 18 ack 40 ------- 0 2.524 18.61 59 9803
+ 0.290977 2 18 tcp 1540 ------- 0 10.888 18.462 14 8564
- 0.291009 2 18 tcp 1540 ------- 0 10.888 18.462 14 8564
+ 0.291849 2 18 ack 40 ------- 0 2.524 18.61 60 9921
r 0.291924 2 18 tcp 1540 ------- 0 10.888 18.462 12 8516
- 0.292241 2 18 ack 40 ------- 0 2.524 18.61 60 9921
+ 0.293081 2 18 ack 40 ------- 0 2.524 18.61 61 9971
- 0.293081 2 18 ack 40 ------- 0 2.524 18.61 61 9971
r 0.293156 2 18 tcp 1540 ------- 0 10.888 18.462 13 8563
+ 0.294313 2 18 ack 40 ------- 0 2.524 18.61 62 10033
- 0.294313 2 18 ack 40 ------- 0 2.524 18.61 62 10033
r 0.294388 2 18 tcp 1540 ------- 0 10.888 18.462 14 8564
r 0.29442 2 18 ack 40 ------- 0 2.524 18.61 60 9921
r 0.29526 2 18 ack 40 ------- 0 2.524 18.61 61 9971
+ 0.295545 2 18 ack 40 ------- 0 2.524 18.61 63 10084
- 0.295545 2 18 ack 40 ------- 0 2.524 18.61 63 10084
r 0.296492 2 18 ack 40 ------- 0 2.524 18.61 62 10033
+ 0.296777 2 18 ack 40 ------- 0 2.524 18.61 64 10143
- 0.296777 2 18 ack 40 ------- 0 2.524 18.61 64 10143
r 0.297724 2 18 ack 40 ------- 0 2.524 18.61 63 10084
+ 0.298009 2 18 ack 40 ------- 0 2.524 18.61 65 10209
- 0.298009 2 18 ack 40 ------- 0 2.524 18.61 65 10209
r 0.298956 2 18 ack 40 ------- 0 2.524 18.61 64 10143
r 0.300188 2 18 ack 40 ------- 0 2.524 18.61 65 10209
+ 0.300473 2 18 ack 40 ------- 0 2.524 18.61 66 10291
- 0.300473 2 18 ack 40 ------- 0 2.524 18.61 66 10291
+ 0.302481 2 18 tcp 40 ------- 0 12.1080 18.595 0 5556
- 0.302481 2 18 tcp 40 ------- 0 12.1080 18.595 0 5556
r 0.302652 2 18 ack 40 ------- 0 2.524 18.61 66 10291
+ 0.304201 2 18 ack 40 ------- 0 2.524 18.61 67 10460
- 0.304201 2 18 ack 40 ------- 0 2.524 18.61 67 10460
r 0.30466 2 18 tcp 40 ------- 0 12.1080 18.595 0 5556
+ 0.305465 2 18 ack 40 ------- 0 2.524 18.61 68 10506
- 0.305465 2 18 ack 40 ------- 0 2.524 18.61 68 10506
r 0.30638 2 18 ack 40 ------- 0 2.524 18.61 67 10460
+ 0.306697 2 18 ack 40 ------- 0 2.524 18.61 69 10569
- 0.306697 2 18 ack 40 ------- 0 2.524 18.61 69 10569
r 0.307644 2 18 ack 40 ------- 0 2.524 18.61 68 10506
+ 0.307929 2 18 ack 40 ------- 0 2.524 18.61 70 10618
- 0.307929 2 18 ack 40 ------- 0 2.524 18.61 70 10618
r 0.308876 2 18 ack 40 ------- 0 2.524 18.61 69 10569
+ 0.309225 2 18 ack 40 ------- 0 2.524 18.61 71 10666
- 0.309225 2 18 ack 40 ------- 0 2.524 18.61 71 10666
r 0.310108 2 18 ack 40 ------- 0 2.524 18.61 70 10618
+ 0.310489 2 18 ack 40 ------- 0 2.524 18.61 72 10709
- 0.310489 2 18 ack 40 ------- 0 2.524 18.61 72 10709
+ 0.310545 2 18 tcp 1540 ------- 0 10.892 18.466 1 9771
- 0.310545 2 18 tcp 1540 ------- 0 10.892 18.466 1 9771
r 0.311404 2 18 ack 40 ------- 0 2.524 18.61 71 10666
+ 0.311721 2 18 ack 40 ------- 0 2.524 18.61 73 10766
- 0.311777 2 18 ack 40 ------- 0 2.524 18.61 73 10766
+ 0.312602 2 18 ack 40 ------- 0 16.782 18.293 3 6560
- 0.312602 2 18 ack 40 ------- 0 16.782 18.293 3 6560
r 0.312668 2 18 ack 40 ------- 0 2.524 18.61 72 10709
+ 0.31273 2 18 ack 40 ------- 0 16.782 18.293 4 6748
- 0.31273 2 18 ack 40 ------- 0 16.782 18.293 4 6748
+ 0.312858 2 18 ack 40 ------- 0 16.782 18.293 5 6910
- 0.312858 2 18 ack 40 ------- 0 16.782 18.293 5 6910
+ 0.312953 2 18 ack 40 ------- 0 2.524 18.61 74 10819
- 0.312953 2 18 ack 40 ------- 0 2.524 18.61 74 10819
+ 0.313041 2 18 ack 40 ------- 0 10.650 18.149 1 9970
- 0.313041 2 18 ack 40 ------- 0 10.650 18.149 1 9970
+ 0.313114 2 18 ack 40 ------- 0 16.782 18.293 6 7088
- 0.313114 2 18 ack 40 ------- 0 16.782 18.293 6 7088
r 0.313924 2 18 tcp 1540 ------- 0 10.892 18.466 1 9771
r 0.313956 2 18 ack 40 ------- 0 2.524 18.61 73 10766
+ 0.314185 2 18 ack 40 ------- 0 2.524 18.61 75 10866
- 0.314185 2 18 ack 40 ------- 0 2.524 18.61 75 10866
+ 0.314337 2 18 ack 40 ------- 0 10.650 18.149 2 10086
- 0.314337 2 18 ack 40 ------- 0 10.650 18.149 2 10086
r 0.31478 2 18 ack 40 ------- 0 16.782 18.293 3 6560
r 0.314908 2 18 ack 40 ------- 0 16.782 18.293 4 6748
r 0.315036 2 18 ack 40 ------- 0 16.782 18.293 5 6910
r 0.315132 2 18 ack 40 ------- 0 2.524 18.61 74 10819
r 0.31522 2 18 ack 40 ------- 0 10.650 18.149 1 9970
r 0.315292 2 18 ack 40 ------- 0 16.782 18.293 6 7088
+ 0.315417 2 18 ack 40 ------- 0 2.524 18.61 76 10914
- 0.315417 2 18 ack 40 ------- 0 2.524 18.61 76 10914
r 0.316364 2 18 ack 40 ------- 0 2.524 18.61 75 10866
r 0.316516 2 18 ack 40 ------- 0 10.650 18.149 2 10086
+ 0.316681 2 18 ack 40 ------- 0 2.524 18.61 77 10964
- 0.316681 2 18 ack 40 ------- 0 2.524 18.61 77 10964
r 0.317596 2 18 ack 40 ------- 0 2.524 18.61 76 10914
+ 0.317945 2 18 ack 40 ------- 0 2.524 18.61 78 11002
- 0.317945 2 18 ack 40 ------- 0 2.524 18.61 78 11002
r 0.31886 2 18 ack 40 ------- 0 2.524 18.61 77 10964
+ 0.319209 2 18 ack 40 ------- 0 2.524 18.61 79 11063
- 0.319209 2 18 ack 40 ------- 0 2.524 18.61 79 11063
r 0.320124 2 18 ack 40 ------- 0 2.524 18.61 78 11002
+ 0.320569 2 18 ack 40 ------- 0 2.524 18.61 80 11141
- 0.320569 2 18 ack 40 ------- 0 2.524 18.61 80 11141
r 0.321388 2 18 ack 40 ------- 0 2.524 18.61 79 11063
+ 0.321801 2 18 ack 40 ------- 0 2.524 18.61 81 11192
- 0.321801 2 18 ack 40 ------- 0 2.524 18.61 81 11192
r 0.322748 2 18 ack 40 ------- 0 2.524 18.61 80 11141
+ 0.323033 2 18 ack 40 ------- 0 2.524 18.61 82 11232
- 0.323033 2 18 ack 40 ------- 0 2.524 18.61 82 11232
r 0.32398 2 18 ack 40 ------- 0 2.524 18.61 81 11192
+ 0.324265 2 18 ack 40 ------- 0 2.524 18.61 83 11274
- 0.324265 2 18 ack 40 ------- 0 2.524 18.61 83 11274
r 0.325212 2 18 ack 40 ------- 0 2.524 18.61 82 11232
+ 0.325497 2 18 ack 40 ------- 0 2.524 18.61 84 11315
- 0.325497 2 18 ack 40 ------- 0 2.524 18.61 84 11315
r 0.326444 2 18 ack 40 ------- 0 2.524 18.61 83 11274
+ 0.326729 2 18 ack 40 ------- 0 2.524 18.61 85 11373
- 0.326729 2 18 ack 40 ------- 0 2.524 18.61 85 11373
+ 0.327009 2 18 tcp 1540 ------- 0 10.888 18.462 15 10788
- 0.327009 2 18 tcp 1540 ------- 0 10.888 18.462 15 10788
r 0.327676 2 18 ack 40 ------- 0 2.524 18.61 84 11315
+ 0.327961 2 18 ack 40 ------- 0 2.524 18.61 86 11423
+ 0.328241 2 18 tcp 1540 ------- 0 10.888 18.462 16 10789
- 0.328241 2 18 ack 40 ------- 0 2.524 18.61 86 11423
- 0.328273 2 18 tcp 1540 ------- 0 10.888 18.462 16 10789
r 0.328908 2 18 ack 40 ------- 0 2.524 18.61 85 11373
+ 0.329505 2 18 tcp 1540 ------- 0 10.888 18.462 17 10840
- 0.329505 2 18 tcp 1540 ------- 0 10.888 18.462 17 10840
r 0.330388 2 18 tcp 1540 ------- 0 10.888 18.462 15 10788
r 0.33042 2 18 ack 40 ------- 0 2.524 18.61 86 11423
+ 0.330457 2 18 ack 40 ------- 0 2.524 18.61 87 11534
+ 0.330737 2 18 tcp 1540 ------- 0 10.888 18.462 18 10841
- 0.330737 2 18 ack 40 ------- 0 2.524 18.61 87 11534
- 0.330769 2 18 tcp 1540 ------- 0 10.888 18.462 18 10841
r 0.331652 2 18 tcp 1540 ------- 0 10.888 18.462 16 10789
+ 0.331689 2 18 ack 40 ------- 0 2.524 18.61 88 11590
- 0.332001 2 18 ack 40 ------- 0 2.524 18.61 88 11590
r 0.332884 2 18 tcp 1540 ------- 0 10.888 18.462 17 10840
r 0.332916 2 18 ack 40 ------- 0 2.524 18.61 87 11534
+ 0.332921 2 18 ack 40 ------- 0 2.524 18.61 89 11628
- 0.332921 2 18 ack 40 ------- 0 2.524 18.61 89 11628
+ 0.333082 2 18 ack 40 ------- 0 16.783 18.294 13 7263
- 0.333082 2 18 ack 40 ------- 0 16.783 18.294 13 7263
+ 0.33321 2 18 ack 40 ------- 0 16.783 18.294 13 7448
- 0.33321 2 18 ack 40 ------- 0 16.783 18.294 13 7448
+ 0.333594 2 18 ack 40 ------- 0 16.783 18.294 13 7630
- 0.333594 2 18 ack 40 ------- 0 16.783 18.294 13 7630
+ 0.333722 2 18 ack 40 ------- 0 16.783 18.294 13 7797
- 0.333722 2 18 ack 40 ------- 0 16.783 18.294 13 7797
r 0.334148 2 18 tcp 1540 ------- 0 10.888 18.462 18 10841
r 0.33418 2 18 ack 40 ------- 0 2.524 18.61 88 11590
r 0.3351 2 18 ack 40 ------- 0 2.524 18.61 89 11628
r 0.33526 2 18 ack 40 ------- 0 16.783 18.294 13 7263
r 0.335388 2 18 ack 40 ------- 0 16.783 18.294 13 7448
+ 0.335417 2 18 ack 40 ------- 0 2.524 18.61 90 11729
- 0.335417 2 18 ack 40 ------- 0 2.524 18.61 90 11729
r 0.335772 2 18 ack 40 ------- 0 16.783 18.294 13 7630
r 0.3359 2 18 ack 40 ------- 0 16.783 18.294 13 7797
+ 0.336649 2 18 ack 40 ------- 0 2.524 18.61 91 11784
- 0.336649 2 18 ack 40 ------- 0 2.524 18.61 91 11784
r 0.337596 2 18 ack 40 ------- 0 2.524 18.61 90 11729
+ 0.337881 2 18 ack 40 ------- 0 2.524 18.61 92 11835
- 0.337881 2 18 ack 40 ------- 0 2.524 18.61 92 11835
+ 0.338353 2 18 tcp 1540 ------- 0 10.888 18.462 19 11128
- 0.338353 2 18 tcp 1540 ------- 0 10.888 18.462 19 11128
r 0.338828 2 18 ack 40 ------- 0 2.524 18.61 91 11784
+ 0.338906 2 18 ack 40 ------- 0 16.783 18.294 13 7980
+ 0.339145 2 18 ack 40 ------- 0 2.524 18.61 93 11879
+ 0.339585 2 18 tcp 1540 ------- 0 10.888 18.462 20 11129
- 0.339585 2 18 ack 40 ------- 0 16.783 18.294 13 7980
- 0.339617 2 18 ack 40 ------- 0 2.524 18.61 93 11879
- 0.339649 2 18 tcp 1540 ------- 0 10.888 18.462 20 11129
r 0.34006 2 18 ack 40 ------- 0 2.524 18.61 92 11835