+ 0.002249 1 24 rtProtoDV 26 ------- 0 1.2013 24.1022 -1 27
- 0.002249 1 24 rtProtoDV 26 ------- 0 1.2013 24.1022 -1 27
+ 0.005575 1 24 rtProtoDV 26 ------- 0 1.2013 24.1022 -1 105
- 0.005575 1 24 rtProtoDV 26 ------- 0 1.2013 24.1022 -1 105
+ 0.0072 1 24 rtProtoDV 26 ------- 0 1.2013 24.1022 -1 163
- 0.0072 1 24 rtProtoDV 26 ------- 0 1.2013 24.1022 -1 163
+ 0.007769 1 24 rtProtoDV 26 ------- 0 1.2013 24.1022 -1 193
- 0.007769 1 24 rtProtoDV 26 ------- 0 1.2013 24.1022 -1 193
+ 0.00802 1 24 rtProtoDV 26 ------- 0 1.2013 24.1022 -1 212
- 0.00802 1 24 rtProtoDV 26 ------- 0 1.2013 24.1022 -1 212
+ 0.010239 1 24 rtProtoDV 26 ------- 0 1.2013 24.1022 -1 305
- 0.010239 1 24 rtProtoDV 26 ------- 0 1.2013 24.1022 -1 305
+ 0.012991 1 24 rtProtoDV 26 ------- 0 1.2013 24.1022 -1 470
- 0.012991 1 24 rtProtoDV 26 ------- 0 1.2013 24.1022 -1 470
+ 0.016623 1 24 rtProtoDV 26 ------- 0 1.2013 24.1022 -1 616
- 0.016623 1 24 rtProtoDV 26 ------- 0 1.2013 24.1022 -1 616
+ 0.016898 1 24 rtProtoDV 26 ------- 0 1.2013 24.1022 -1 636
- 0.016898 1 24 rtProtoDV 26 ------- 0 1.2013 24.1022 -1 636
+ 0.018751 1 24 rtProtoDV 26 ------- 0 1.2013 24.1022 -1 705
- 0.018751 1 24 rtProtoDV 26 ------- 0 1.2013 24.1022 -1 705
+ 0.019138 1 24 rtProtoDV 26 ------- 0 1.2013 24.1022 -1 718
- 0.019138 1 24 rtProtoDV 26 ------- 0 1.2013 24.1022 -1 718
+ 0.019363 1 24 rtProtoDV 26 ------- 0 1.2013 24.1022 -1 734
- 0.019363 1 24 rtProtoDV 26 ------- 0 1.2013 24.1022 -1 734
+ 0.022957 1 24 rtProtoDV 26 ------- 0 1.2013 24.1022 -1 831
- 0.022957 1 24 rtProtoDV 26 ------- 0 1.2013 24.1022 -1 831
r 0.035656 1 24 rtProtoDV 26 ------- 0 1.2013 24.1022 -1 27
+ 0.036212 1 24 tcp 40 ------- 0 2.1240 24.646 0 948
- 0.036212 1 24 tcp 40 ------- 0 2.1240 24.646 0 948
r 0.038982 1 24 rtProtoDV 26 ------- 0 1.2013 24.1022 -1 105
r 0.040607 1 24 rtProtoDV 26 ------- 0 1.2013 24.1022 -1 163
+ 0.040725 1 24 tcp 40 ------- 0 0.1402 24.485 0 1190
- 0.040725 1 24 tcp 40 ------- 0 0.1402 24.485 0 1190
r 0.041176 1 24 rtProtoDV 26 ------- 0 1.2013 24.1022 -1 193
r 0.041427 1 24 rtProtoDV 26 ------- 0 1.2013 24.1022 -1 212
r 0.043646 1 24 rtProtoDV 26 ------- 0 1.2013 24.1022 -1 305
r 0.046399 1 24 rtProtoDV 26 ------- 0 1.2013 24.1022 -1 470
r 0.05003 1 24 rtProtoDV 26 ------- 0 1.2013 24.1022 -1 616
+ 0.050195 1 24 tcp 40 ------- 0 0.1420 24.503 0 1432
- 0.050195 1 24 tcp 40 ------- 0 0.1420 24.503 0 1432
r 0.050305 1 24 rtProtoDV 26 ------- 0 1.2013 24.1022 -1 636
r 0.052158 1 24 rtProtoDV 26 ------- 0 1.2013 24.1022 -1 705
r 0.052545 1 24 rtProtoDV 26 ------- 0 1.2013 24.1022 -1 718
r 0.05277 1 24 rtProtoDV 26 ------- 0 1.2013 24.1022 -1 734
r 0.056364 1 24 rtProtoDV 26 ------- 0 1.2013 24.1022 -1 831
+ 0.064512 1 24 tcp 40 ------- 0 19.1241 24.967 0 1669
- 0.064512 1 24 tcp 40 ------- 0 19.1241 24.967 0 1669
+ 0.069063 1 24 rtProtoDV 26 ------- 0 1.2013 24.1022 -1 2018
- 0.069063 1 24 rtProtoDV 26 ------- 0 1.2013 24.1022 -1 2018
+ 0.069076 1 24 tcp 1540 ------- 0 1.1703 15.686 5 2019
+ 0.069076 1 24 tcp 1540 ------- 0 1.1703 15.686 6 2020
- 0.069105 1 24 tcp 1540 ------- 0 1.1703 15.686 5 2019
r 0.069642 1 24 tcp 40 ------- 0 2.1240 24.646 0 948
- 0.071569 1 24 tcp 1540 ------- 0 1.1703 15.686 6 2020
+ 0.0717 1 24 ack 40 ------- 0 1.603 15.65 0 2106
- 0.074033 1 24 ack 40 ------- 0 1.603 15.65 0 2106
r 0.074155 1 24 tcp 40 ------- 0 0.1402 24.485 0 1190
+ 0.078163 1 24 rtProtoDV 26 ------- 0 1.2013 24.1022 -1 2325
- 0.078163 1 24 rtProtoDV 26 ------- 0 1.2013 24.1022 -1 2325
+ 0.080428 1 24 rtProtoDV 26 ------- 0 1.2013 24.1022 -1 2411
- 0.080428 1 24 rtProtoDV 26 ------- 0 1.2013 24.1022 -1 2411
r 0.083625 1 24 tcp 40 ------- 0 0.1420 24.503 0 1432
+ 0.092923 1 24 tcp 40 ------- 0 9.1359 24.723 0 2383
- 0.092923 1 24 tcp 40 ------- 0 9.1359 24.723 0 2383
+ 0.094311 1 24 tcp 40 ------- 0 1.1952 24.565 0 2856
- 0.094311 1 24 tcp 40 ------- 0 1.1952 24.565 0 2856
+ 0.096756 1 24 tcp 1540 ------- 0 1.1582 15.565 1 2929
- 0.096756 1 24 tcp 1540 ------- 0 1.1582 15.565 1 2929
+ 0.096756 1 24 tcp 1540 ------- 0 1.1582 15.565 2 2930
r 0.097942 1 24 tcp 40 ------- 0 19.1241 24.967 0 1669
- 0.09922 1 24 tcp 1540 ------- 0 1.1582 15.565 2 2930
+ 0.10085 1 24 ack 40 ------- 0 1.601 15.63 1 3080
- 0.101684 1 24 ack 40 ------- 0 1.601 15.63 1 3080
r 0.102471 1 24 rtProtoDV 26 ------- 0 1.2013 24.1022 -1 2018
+ 0.10298 1 24 ack 40 ------- 0 1.601 15.63 2 3159
- 0.10298 1 24 ack 40 ------- 0 1.601 15.63 2 3159
r 0.104935 1 24 tcp 1540 ------- 0 1.1703 15.686 5 2019
r 0.107399 1 24 tcp 1540 ------- 0 1.1703 15.686 6 2020
r 0.107463 1 24 ack 40 ------- 0 1.603 15.65 0 2106
r 0.11157 1 24 rtProtoDV 26 ------- 0 1.2013 24.1022 -1 2325
r 0.113835 1 24 rtProtoDV 26 ------- 0 1.2013 24.1022 -1 2411
+ 0.114961 1 24 tcp 40 ------- 0 1.1950 24.563 0 3531
- 0.114961 1 24 tcp 40 ------- 0 1.1950 24.563 0 3531
+ 0.116832 1 24 tcp 40 ------- 0 19.1228 24.954 0 3410
- 0.116832 1 24 tcp 40 ------- 0 19.1228 24.954 0 3410
+ 0.117363 1 24 tcp 40 ------- 0 1.1537 15.520 0 3587
- 0.117363 1 24 tcp 40 ------- 0 1.1537 15.520 0 3587
+ 0.122662 1 24 tcp 40 ------- 0 2.1234 24.640 0 2524
- 0.122662 1 24 tcp 40 ------- 0 2.1234 24.640 0 2524
+ 0.123432 1 24 ack 40 ------- 0 1.1023 24.53 0 3782
- 0.123432 1 24 ack 40 ------- 0 1.1023 24.53 0 3782
+ 0.125185 1 24 tcp 40 ------- 0 1.1563 15.546 0 3853
- 0.125185 1 24 tcp 40 ------- 0 1.1563 15.546 0 3853
r 0.126352 1 24 tcp 40 ------- 0 9.1359 24.723 0 2383
r 0.127741 1 24 tcp 40 ------- 0 1.1952 24.565 0 2856
+ 0.128663 1 24 ack 40 ------- 0 21.811 15.1372 0 2530
- 0.128663 1 24 ack 40 ------- 0 21.811 15.1372 0 2530
+ 0.131089 1 24 tcp 40 ------- 0 1.1485 14.437 0 4049
- 0.131089 1 24 tcp 40 ------- 0 1.1485 14.437 0 4049
r 0.132586 1 24 tcp 1540 ------- 0 1.1582 15.565 1 2929
+ 0.133059 1 24 tcp 40 ------- 0 1.1457 13.553 0 4099
- 0.133059 1 24 tcp 40 ------- 0 1.1457 13.553 0 4099
r 0.13505 1 24 tcp 1540 ------- 0 1.1582 15.565 2 2930
r 0.135114 1 24 ack 40 ------- 0 1.601 15.63 1 3080
+ 0.135881 1 24 tcp 40 ------- 0 3.1464 24.684 0 3896
- 0.135881 1 24 tcp 40 ------- 0 3.1464 24.684 0 3896
+ 0.136349 1 24 tcp 40 ------- 0 1.1625 15.608 0 4210
- 0.136349 1 24 tcp 40 ------- 0 1.1625 15.608 0 4210
r 0.13641 1 24 ack 40 ------- 0 1.601 15.63 2 3159
+ 0.138731 1 24 tcp 40 ------- 0 21.349 14.1148 0 3040
- 0.138731 1 24 tcp 40 ------- 0 21.349 14.1148 0 3040
+ 0.141129 1 24 ack 40 ------- 0 9.1003 24.205 0 3668
- 0.141129 1 24 ack 40 ------- 0 9.1003 24.205 0 3668
+ 0.142268 1 24 tcp 40 ------- 0 17.1397 24.933 0 4084
- 0.142268 1 24 tcp 40 ------- 0 17.1397 24.933 0 4084
r 0.148391 1 24 tcp 40 ------- 0 1.1950 24.563 0 3531
r 0.150262 1 24 tcp 40 ------- 0 19.1228 24.954 0 3410
r 0.150792 1 24 tcp 40 ------- 0 1.1537 15.520 0 3587
+ 0.155616 1 24 tcp 1540 ------- 0 0.1402 24.485 1 4743
- 0.155616 1 24 tcp 1540 ------- 0 0.1402 24.485 1 4743
+ 0.155935 1 24 tcp 40 ------- 0 1.1465 13.561 0 4874
r 0.156091 1 24 tcp 40 ------- 0 2.1234 24.640 0 2524
+ 0.156848 1 24 tcp 1540 ------- 0 0.1402 24.485 2 4744
r 0.156862 1 24 ack 40 ------- 0 1.1023 24.53 0 3782
- 0.15808 1 24 tcp 40 ------- 0 1.1465 13.561 0 4874
- 0.158144 1 24 tcp 1540 ------- 0 0.1402 24.485 2 4744
r 0.158614 1 24 tcp 40 ------- 0 1.1563 15.546 0 3853
+ 0.16064 1 24 tcp 1540 ------- 0 0.1420 24.503 1 4929
- 0.16064 1 24 tcp 1540 ------- 0 0.1420 24.503 1 4929
+ 0.161171 1 24 tcp 1540 ------- 0 1.1952 24.565 1 5074
+ 0.161171 1 24 tcp 1540 ------- 0 1.1952 24.565 2 5075
+ 0.161235 1 24 ack 40 ------- 0 1.1006 24.36 0 5079
+ 0.161872 1 24 tcp 1540 ------- 0 0.1420 24.503 2 4930
r 0.162093 1 24 ack 40 ------- 0 21.811 15.1372 0 2530
- 0.163104 1 24 tcp 1540 ------- 0 1.1952 24.565 1 5074
r 0.164519 1 24 tcp 40 ------- 0 1.1485 14.437 0 4049
+ 0.1648 1 24 tcp 40 ------- 0 1.1585 15.568 0 5203
- 0.165568 1 24 tcp 1540 ------- 0 1.1952 24.565 2 5075
+ 0.166296 1 24 tcp 40 ------- 0 1.1413 13.509 0 5277
r 0.166489 1 24 tcp 40 ------- 0 1.1457 13.553 0 4099
+ 0.167587 1 24 ack 40 ------- 0 1.563 12.47 1 5322
- 0.168032 1 24 ack 40 ------- 0 1.1006 24.36 0 5079
- 0.168096 1 24 tcp 1540 ------- 0 0.1420 24.503 2 4930
r 0.16931 1 24 tcp 40 ------- 0 3.1464 24.684 0 3896
r 0.169778 1 24 tcp 40 ------- 0 1.1625 15.608 0 4210
+ 0.170051 1 24 ack 40 ------- 0 1.563 12.47 2 5416
- 0.17056 1 24 tcp 40 ------- 0 1.1585 15.568 0 5203
- 0.170624 1 24 tcp 40 ------- 0 1.1413 13.509 0 5277
- 0.170688 1 24 ack 40 ------- 0 1.563 12.47 1 5322
- 0.170752 1 24 ack 40 ------- 0 1.563 12.47 2 5416
+ 0.171184 1 24 tcp 40 ------- 0 9.1383 24.747 0 4746
- 0.171184 1 24 tcp 40 ------- 0 9.1383 24.747 0 4746
r 0.17216 1 24 tcp 40 ------- 0 21.349 14.1148 0 3040
+ 0.173629 1 24 ack 40 ------- 0 1.630 15.92 0 5605
- 0.173629 1 24 ack 40 ------- 0 1.630 15.92 0 5605
r 0.174559 1 24 ack 40 ------- 0 9.1003 24.205 0 3668
r 0.175698 1 24 tcp 40 ------- 0 17.1397 24.933 0 4084
+ 0.177203 1 24 ack 40 ------- 0 1.655 15.117 0 5727
- 0.177203 1 24 ack 40 ------- 0 1.655 15.117 0 5727
+ 0.18136 1 24 tcp 40 ------- 0 9.1380 24.744 0 4865
- 0.18136 1 24 tcp 40 ------- 0 9.1380 24.744 0 4865
+ 0.181782 1 24 tcp 40 ------- 0 1.1621 15.604 0 5870
- 0.181782 1 24 tcp 40 ------- 0 1.1621 15.604 0 5870
+ 0.181821 1 24 tcp 1540 ------- 0 1.1950 24.563 1 5871
+ 0.181821 1 24 tcp 1540 ------- 0 1.1950 24.563 2 5872
- 0.181846 1 24 tcp 1540 ------- 0 1.1950 24.563 1 5871
- 0.18431 1 24 tcp 1540 ------- 0 1.1950 24.563 2 5872
+ 0.185304 1 24 tcp 1540 ------- 0 1.1299 12.310 1 5984
+ 0.185304 1 24 tcp 1540 ------- 0 1.1299 12.310 2 5985
+ 0.185368 1 24 tcp 1540 ------- 0 1.1355 12.366 1 5988
+ 0.185368 1 24 tcp 1540 ------- 0 1.1355 12.366 2 5989
- 0.186774 1 24 tcp 1540 ------- 0 1.1299 12.310 1 5984
- 0.189238 1 24 tcp 1540 ------- 0 1.1299 12.310 2 5985
r 0.191445 1 24 tcp 1540 ------- 0 0.1402 24.485 1 4743
r 0.191509 1 24 tcp 40 ------- 0 1.1465 13.561 0 4874
- 0.191702 1 24 tcp 1540 ------- 0 1.1355 12.366 1 5988
+ 0.192691 1 24 ack 40 ------- 0 1.1023 24.53 1 6229
r 0.193973 1 24 tcp 1540 ------- 0 0.1402 24.485 2 4744
- 0.194166 1 24 tcp 1540 ------- 0 1.1355 12.366 2 5989
+ 0.195155 1 24 ack 40 ------- 0 1.1023 24.53 2 6309
+ 0.195219 1 24 ack 40 ------- 0 1.592 14.8 0 6310
+ 0.195446 1 24 tcp 1540 ------- 0 1.1703 15.686 7 6315
+ 0.195446 1 24 tcp 1540 ------- 0 1.1703 15.686 8 6316
r 0.196469 1 24 tcp 1540 ------- 0 0.1420 24.503 1 4929
- 0.19663 1 24 ack 40 ------- 0 1.1023 24.53 1 6229
- 0.196694 1 24 ack 40 ------- 0 1.1023 24.53 2 6309
- 0.196758 1 24 ack 40 ------- 0 1.592 14.8 0 6310
- 0.196822 1 24 tcp 1540 ------- 0 1.1703 15.686 7 6315
+ 0.197366 1 24 ack 40 ------- 0 1.575 12.59 0 6411
r 0.198933 1 24 tcp 1540 ------- 0 1.1952 24.565 1 5074
- 0.199286 1 24 tcp 1540 ------- 0 1.1703 15.686 8 6316
+ 0.20007 1 24 tcp 1540 ------- 0 2.1240 24.646 1 4785
+ 0.201334 1 24 tcp 1540 ------- 0 2.1240 24.646 2 4786
r 0.201397 1 24 tcp 1540 ------- 0 1.1952 24.565 2 5075
r 0.201461 1 24 ack 40 ------- 0 1.1006 24.36 0 5079
+ 0.20148 1 24 tcp 1540 ------- 0 1.1318 12.329 1 6566
+ 0.20148 1 24 tcp 1540 ------- 0 1.1318 12.329 2 6567
- 0.20175 1 24 ack 40 ------- 0 1.575 12.59 0 6411
- 0.201814 1 24 tcp 1540 ------- 0 2.1240 24.646 1 4785
+ 0.203502 1 24 tcp 40 ------- 0 1.1317 12.328 0 6637
r 0.203925 1 24 tcp 1540 ------- 0 0.1420 24.503 2 4930
r 0.203989 1 24 tcp 40 ------- 0 1.1585 15.568 0 5203
r 0.204053 1 24 tcp 40 ------- 0 1.1413 13.509 0 5277
r 0.204117 1 24 ack 40 ------- 0 1.563 12.47 1 5322
r 0.204181 1 24 ack 40 ------- 0 1.563 12.47 2 5416
- 0.204278 1 24 tcp 1540 ------- 0 2.1240 24.646 2 4786
r 0.204614 1 24 tcp 40 ------- 0 9.1383 24.747 0 4746
- 0.206742 1 24 tcp 1540 ------- 0 1.1318 12.329 1 6566
r 0.207059 1 24 ack 40 ------- 0 1.630 15.92 0 5605
- 0.209206 1 24 tcp 1540 ------- 0 1.1318 12.329 2 6567
r 0.210632 1 24 ack 40 ------- 0 1.655 15.117 0 5727
- 0.21167 1 24 tcp 40 ------- 0 1.1317 12.328 0 6637
+ 0.212304 1 24 tcp 40 ------- 0 1.1364 13.460 0 6931
- 0.212304 1 24 tcp 40 ------- 0 1.1364 13.460 0 6931
+ 0.21394 1 24 tcp 40 ------- 0 19.1225 24.951 0 6794
- 0.21394 1 24 tcp 40 ------- 0 19.1225 24.951 0 6794
r 0.21479 1 24 tcp 40 ------- 0 9.1380 24.744 0 4865
r 0.215211 1 24 tcp 40 ------- 0 1.1621 15.604 0 5870
+ 0.215357 1 24 tcp 1540 ------- 0 1.1703 15.686 9 7066
- 0.215357 1 24 tcp 1540 ------- 0 1.1703 15.686 9 7066
r 0.217675 1 24 tcp 1540 ------- 0 1.1950 24.563 1 5871
+ 0.217821 1 24 tcp 1540 ------- 0 1.1703 15.686 10 7139
- 0.217821 1 24 tcp 1540 ------- 0 1.1703 15.686 10 7139
+ 0.219684 1 24 tcp 40 ------- 0 0.1410 24.493 0 7135
r 0.220139 1 24 tcp 1540 ------- 0 1.1950 24.563 2 5872
- 0.220285 1 24 tcp 40 ------- 0 0.1410 24.493 0 7135
+ 0.22088 1 24 tcp 40 ------- 0 1.1521 14.473 0 7248
- 0.22088 1 24 tcp 40 ------- 0 1.1521 14.473 0 7248
+ 0.221696 1 24 tcp 40 ------- 0 1.1533 14.485 0 7275
- 0.221696 1 24 tcp 40 ------- 0 1.1533 14.485 0 7275
r 0.222603 1 24 tcp 1540 ------- 0 1.1299 12.310 1 5984
+ 0.222685 1 24 ack 40 ------- 0 1.603 15.65 1 7308
- 0.222685 1 24 ack 40 ------- 0 1.603 15.65 1 7308
r 0.225067 1 24 tcp 1540 ------- 0 1.1299 12.310 2 5985
+ 0.225149 1 24 ack 40 ------- 0 1.603 15.65 2 7401
- 0.225149 1 24 ack 40 ------- 0 1.603 15.65 2 7401
+ 0.225213 1 24 ack 40 ------- 0 1.633 15.95 0 7402
- 0.225213 1 24 ack 40 ------- 0 1.633 15.95 0 7402
r 0.227531 1 24 tcp 1540 ------- 0 1.1355 12.366 1 5988
r 0.229995 1 24 tcp 1540 ------- 0 1.1355 12.366 2 5989
r 0.230059 1 24 ack 40 ------- 0 1.1023 24.53 1 6229
r 0.230123 1 24 ack 40 ------- 0 1.1023 24.53 2 6309
r 0.230187 1 24 ack 40 ------- 0 1.592 14.8 0 6310
+ 0.232363 1 24 tcp 1540 ------- 0 1.1952 24.565 3 7678
- 0.232363 1 24 tcp 1540 ------- 0 1.1952 24.565 3 7678
+ 0.232363 1 24 tcp 1540 ------- 0 1.1952 24.565 4 7679
r 0.232651 1 24 tcp 1540 ------- 0 1.1703 15.686 7 6315
+ 0.233747 1 24 tcp 40 ------- 0 1.1385 13.481 0 7723
+ 0.234827 1 24 tcp 1540 ------- 0 1.1952 24.565 5 7752
+ 0.234827 1 24 tcp 1540 ------- 0 1.1952 24.565 6 7753
- 0.234827 1 24 tcp 1540 ------- 0 1.1952 24.565 4 7679
r 0.235115 1 24 tcp 1540 ------- 0 1.1703 15.686 8 6316
r 0.235179 1 24 ack 40 ------- 0 1.575 12.59 0 6411
- 0.237291 1 24 tcp 40 ------- 0 1.1385 13.481 0 7723
+ 0.237291 1 24 ack 40 ------- 0 1.1006 24.36 1 7849
- 0.237355 1 24 tcp 1540 ------- 0 1.1952 24.565 5 7752
r 0.237643 1 24 tcp 1540 ------- 0 2.1240 24.646 1 4785
+ 0.239755 1 24 ack 40 ------- 0 1.1006 24.36 2 7926
- 0.239819 1 24 tcp 1540 ------- 0 1.1952 24.565 6 7753
+ 0.239968 1 24 tcp 1540 ------- 0 9.1359 24.723 1 5708
r 0.240107 1 24 tcp 1540 ------- 0 2.1240 24.646 2 4786
- 0.242283 1 24 ack 40 ------- 0 1.1006 24.36 1 7849
- 0.242347 1 24 ack 40 ------- 0 1.1006 24.36 2 7926
- 0.242411 1 24 tcp 1540 ------- 0 9.1359 24.723 1 5708
r 0.242571 1 24 tcp 1540 ------- 0 1.1318 12.329 1 6566
+ 0.243008 1 24 tcp 1540 ------- 0 1.1582 15.565 3 8056
+ 0.243008 1 24 tcp 1540 ------- 0 1.1582 15.565 4 8057
+ 0.243664 1 24 tcp 1540 ------- 0 9.1359 24.723 2 5709
- 0.244875 1 24 tcp 1540 ------- 0 1.1582 15.565 3 8056
r 0.245035 1 24 tcp 1540 ------- 0 1.1318 12.329 2 6567
r 0.245099 1 24 tcp 40 ------- 0 1.1317 12.328 0 6637
+ 0.245536 1 24 tcp 1540 ------- 0 1.1582 15.565 5 8128
+ 0.245536 1 24 tcp 1540 ------- 0 1.1582 15.565 6 8129
r 0.245734 1 24 tcp 40 ------- 0 1.1364 13.460 0 6931
- 0.247339 1 24 tcp 1540 ------- 0 1.1582 15.565 4 8057
r 0.24737 1 24 tcp 40 ------- 0 19.1225 24.951 0 6794
- 0.249803 1 24 tcp 1540 ------- 0 9.1359 24.723 2 5709
+ 0.250104 1 24 tcp 40 ------- 0 1.1425 13.521 0 8279
+ 0.250112 1 24 tcp 40 ------- 0 1.1571 15.554 0 8280
+ 0.250144 1 24 tcp 40 ------- 0 0.1405 24.488 0 8187
+ 0.2504 1 24 ack 40 ------- 0 1.601 15.63 3 8286
r 0.251186 1 24 tcp 1540 ------- 0 1.1703 15.686 9 7066
- 0.252267 1 24 tcp 1540 ------- 0 1.1582 15.565 5 8128
+ 0.252855 1 24 tcp 40 ------- 0 1.1974 24.587 0 8385
+ 0.252928 1 24 ack 40 ------- 0 1.601 15.63 4 8387
+ 0.252992 1 24 tcp 1540 ------- 0 1.1950 24.563 3 8391
+ 0.252992 1 24 tcp 1540 ------- 0 1.1950 24.563 4 8392
+ 0.2534 1 24 tcp 40 ------- 0 16.1118 24.922 0 5124
d 0.2534 1 24 tcp 40 ------- 0 16.1118 24.922 0 5124
r 0.25365 1 24 tcp 1540 ------- 0 1.1703 15.686 10 7139
r 0.253714 1 24 tcp 40 ------- 0 0.1410 24.493 0 7135
r 0.25431 1 24 tcp 40 ------- 0 1.1521 14.473 0 7248
- 0.254731 1 24 tcp 1540 ------- 0 1.1582 15.565 6 8129
+ 0.254932 1 24 tcp 40 ------- 0 1.1663 15.646 0 8457
r 0.255125 1 24 tcp 40 ------- 0 1.1533 14.485 0 7275
+ 0.255456 1 24 ack 40 ------- 0 1.601 15.63 5 8478
d 0.255456 1 24 ack 40 ------- 0 1.601 15.63 5 8478
+ 0.25552 1 24 tcp 1540 ------- 0 1.1950 24.563 5 8480
d 0.25552 1 24 tcp 1540 ------- 0 1.1950 24.563 5 8480
+ 0.25552 1 24 tcp 1540 ------- 0 1.1950 24.563 6 8481
d 0.25552 1 24 tcp 1540 ------- 0 1.1950 24.563 6 8481
r 0.256114 1 24 ack 40 ------- 0 1.603 15.65 1 7308
- 0.257195 1 24 tcp 40 ------- 0 1.1425 13.521 0 8279
- 0.257259 1 24 tcp 40 ------- 0 1.1571 15.554 0 8280
- 0.257323 1 24 tcp 40 ------- 0 0.1405 24.488 0 8187
- 0.257387 1 24 ack 40 ------- 0 1.601 15.63 3 8286
- 0.257451 1 24 tcp 40 ------- 0 1.1974 24.587 0 8385
- 0.257515 1 24 ack 40 ------- 0 1.601 15.63 4 8387
- 0.257579 1 24 tcp 1540 ------- 0 1.1950 24.563 3 8391
+ 0.257708 1 24 tcp 40 ------- 0 1.1394 13.490 0 8566
+ 0.258048 1 24 ack 40 ------- 0 1.601 15.63 6 8572
+ 0.258228 1 24 tcp 40 ------- 0 1.1502 14.454 0 8580
r 0.258578 1 24 ack 40 ------- 0 1.603 15.65 2 7401
r 0.258642 1 24 ack 40 ------- 0 1.633 15.95 0 7402
- 0.260043 1 24 tcp 1540 ------- 0 1.1950 24.563 4 8392
+ 0.260448 1 24 tcp 40 ------- 0 0.1414 24.497 0 8545
- 0.262507 1 24 tcp 40 ------- 0 1.1663 15.646 0 8457
- 0.262571 1 24 tcp 40 ------- 0 1.1394 13.490 0 8566
- 0.262635 1 24 ack 40 ------- 0 1.601 15.63 6 8572
- 0.262699 1 24 tcp 40 ------- 0 1.1502 14.454 0 8580
- 0.262763 1 24 tcp 40 ------- 0 0.1414 24.497 0 8545
+ 0.263896 1 24 ack 40 ------- 0 16.954 24.336 0 5847
- 0.263896 1 24 ack 40 ------- 0 16.954 24.336 0 5847
+ 0.265216 1 24 tcp 1540 ------- 0 0.1402 24.485 3 8706
- 0.265216 1 24 tcp 1540 ------- 0 0.1402 24.485 3 8706
+ 0.265889 1 24 ack 40 ------- 0 1.1023 24.53 3 8849
+ 0.266448 1 24 tcp 1540 ------- 0 0.1402 24.485 4 8707
+ 0.26768 1 24 tcp 1540 ------- 0 0.1402 24.485 5 8709
- 0.26768 1 24 ack 40 ------- 0 1.1023 24.53 3 8849
+ 0.26771 1 24 ack 40 ------- 0 21.1019 24.423 0 5056
- 0.267744 1 24 tcp 1540 ------- 0 0.1402 24.485 4 8707
r 0.268193 1 24 tcp 1540 ------- 0 1.1952 24.565 3 7678
+ 0.268353 1 24 ack 40 ------- 0 1.1023 24.53 4 8957
+ 0.268912 1 24 tcp 1540 ------- 0 0.1402 24.485 6 8710
+ 0.269208 1 24 tcp 40 ------- 0 16.423 14.976 0 6313
+ 0.269336 1 24 ack 40 ------- 0 16.696 15.1239 0 6431
+ 0.270176 1 24 tcp 1540 ------- 0 0.1420 24.503 3 8716
- 0.270208 1 24 tcp 1540 ------- 0 0.1402 24.485 5 8709
r 0.270657 1 24 tcp 1540 ------- 0 1.1952 24.565 4 7679
r 0.270721 1 24 tcp 40 ------- 0 1.1385 13.481 0 7723
+ 0.270817 1 24 ack 40 ------- 0 1.1023 24.53 5 9078
+ 0.271038 1 24 tcp 40 ------- 0 1.1640 15.623 0 9088
+ 0.271408 1 24 tcp 1540 ------- 0 0.1420 24.503 4 8717
- 0.272672 1 24 ack 40 ------- 0 21.1019 24.423 0 5056
- 0.272736 1 24 ack 40 ------- 0 1.1023 24.53 4 8957
- 0.2728 1 24 tcp 1540 ------- 0 0.1402 24.485 6 8710
r 0.273185 1 24 tcp 1540 ------- 0 1.1952 24.565 5 7752
+ 0.273281 1 24 ack 40 ------- 0 1.1023 24.53 6 9176
+ 0.273409 1 24 ack 40 ------- 0 1.566 12.50 0 9183
+ 0.275168 1 24 tcp 1540 ------- 0 0.1420 24.503 5 8955
- 0.275264 1 24 tcp 40 ------- 0 16.423 14.976 0 6313
+ 0.275296 1 24 tcp 1540 ------- 0 1.1537 15.520 1 9287
+ 0.275296 1 24 tcp 1540 ------- 0 1.1537 15.520 2 9288
d 0.275296 1 24 tcp 1540 ------- 0 1.1537 15.520 2 9288
- 0.275328 1 24 ack 40 ------- 0 16.696 15.1239 0 6431
+ 0.27536 1 24 tcp 1540 ------- 0 1.1563 15.546 1 9291
+ 0.27536 1 24 tcp 1540 ------- 0 1.1563 15.546 2 9292
d 0.27536 1 24 tcp 1540 ------- 0 1.1563 15.546 2 9292
- 0.275392 1 24 tcp 1540 ------- 0 0.1420 24.503 3 8716
+ 0.275424 1 24 tcp 1540 ------- 0 1.1417 13.513 1 9295
+ 0.275424 1 24 tcp 1540 ------- 0 1.1417 13.513 2 9296
d 0.275424 1 24 tcp 1540 ------- 0 1.1417 13.513 2 9296
r 0.275649 1 24 tcp 1540 ------- 0 1.1952 24.565 6 7753
r 0.275713 1 24 ack 40 ------- 0 1.1006 24.36 1 7849
r 0.275777 1 24 ack 40 ------- 0 1.1006 24.36 2 7926
+ 0.2764 1 24 tcp 1540 ------- 0 0.1420 24.503 6 8956
d 0.2764 1 24 tcp 1540 ------- 0 0.1420 24.503 6 8956
+ 0.277664 1 24 ack 40 ------- 0 0.587 24.32 0 9082
d 0.277664 1 24 ack 40 ------- 0 0.587 24.32 0 9082
- 0.277856 1 24 ack 40 ------- 0 1.1023 24.53 5 9078
- 0.27792 1 24 tcp 40 ------- 0 1.1640 15.623 0 9088
+ 0.27794 1 24 rtProtoDV 26 ------- 0 1.2013 24.1022 -1 9394
- 0.277984 1 24 tcp 1540 ------- 0 0.1420 24.503 4 8717
r 0.278241 1 24 tcp 1540 ------- 0 9.1359 24.723 1 5708
+ 0.279704 1 24 ack 40 ------- 0 16.683 14.1294 0 7081
+ 0.280088 1 24 ack 40 ------- 0 16.948 24.330 0 7509
- 0.280448 1 24 ack 40 ------- 0 1.1023 24.53 6 9176
- 0.280512 1 24 ack 40 ------- 0 1.566 12.50 0 9183
- 0.280576 1 24 tcp 1540 ------- 0 0.1420 24.503 5 8955
r 0.280705 1 24 tcp 1540 ------- 0 1.1582 15.565 3 8056
+ 0.2826 1 24 tcp 40 ------- 0 1.1464 13.560 0 9601
+ 0.282816 1 24 tcp 1540 ------- 0 1.1625 15.608 1 9614
+ 0.282816 1 24 tcp 1540 ------- 0 1.1625 15.608 2 9615
- 0.28304 1 24 tcp 1540 ------- 0 1.1537 15.520 1 9287
r 0.283169 1 24 tcp 1540 ------- 0 1.1582 15.565 4 8057
- 0.285504 1 24 tcp 1540 ------- 0 1.1563 15.546 1 9291
r 0.285633 1 24 tcp 1540 ------- 0 9.1359 24.723 2 5709
+ 0.286844 1 24 tcp 40 ------- 0 1.1673 15.656 0 9751
- 0.287968 1 24 tcp 1540 ------- 0 1.1417 13.513 1 9295
+ 0.288077 1 24 tcp 40 ------- 0 1.2000 24.613 0 9799
r 0.288097 1 24 tcp 1540 ------- 0 1.1582 15.565 5 8128
- 0.290432 1 24 rtProtoDV 26 ------- 0 1.2013 24.1022 -1 9394
- 0.290473 1 24 ack 40 ------- 0 16.683 14.1294 0 7081
- 0.290537 1 24 ack 40 ------- 0 16.948 24.330 0 7509
r 0.290561 1 24 tcp 1540 ------- 0 1.1582 15.565 6 8129
- 0.290601 1 24 tcp 40 ------- 0 1.1464 13.560 0 9601
r 0.290625 1 24 tcp 40 ------- 0 1.1425 13.521 0 8279
- 0.290665 1 24 tcp 1540 ------- 0 1.1625 15.608 1 9614
r 0.290689 1 24 tcp 40 ------- 0 1.1571 15.554 0 8280
r 0.290753 1 24 tcp 40 ------- 0 0.1405 24.488 0 8187
r 0.290817 1 24 ack 40 ------- 0 1.601 15.63 3 8286
r 0.290881 1 24 tcp 40 ------- 0 1.1974 24.587 0 8385
r 0.290945 1 24 ack 40 ------- 0 1.601 15.63 4 8387
+ 0.291618 1 24 tcp 40 ------- 0 1.1313 12.324 0 9912
+ 0.291701 1 24 ack 40 ------- 0 1.606 15.68 0 9913
+ 0.291936 1 24 ack 40 ------- 0 6.911 24.152 0 7804
- 0.293129 1 24 tcp 1540 ------- 0 1.1625 15.608 2 9615
r 0.293409 1 24 tcp 1540 ------- 0 1.1950 24.563 3 8391
+ 0.294128 1 24 tcp 40 ------- 0 2.1232 24.638 0 8487
+ 0.295128 1 24 tcp 40 ------- 0 16.440 15.1073 0 7990
- 0.295593 1 24 tcp 40 ------- 0 1.1673 15.656 0 9751
- 0.295657 1 24 tcp 40 ------- 0 1.2000 24.613 0 9799
- 0.295721 1 24 tcp 40 ------- 0 1.1313 12.324 0 9912
- 0.295785 1 24 ack 40 ------- 0 1.606 15.68 0 9913
- 0.295849 1 24 ack 40 ------- 0 6.911 24.152 0 7804
r 0.295873 1 24 tcp 1540 ------- 0 1.1950 24.563 4 8392
- 0.295913 1 24 tcp 40 ------- 0 2.1232 24.638 0 8487
r 0.295937 1 24 tcp 40 ------- 0 1.1663 15.646 0 8457
- 0.295977 1 24 tcp 40 ------- 0 16.440 15.1073 0 7990
r 0.296001 1 24 tcp 40 ------- 0 1.1394 13.490 0 8566
r 0.296065 1 24 ack 40 ------- 0 1.601 15.63 6 8572
r 0.296129 1 24 tcp 40 ------- 0 1.1502 14.454 0 8580
r 0.296193 1 24 tcp 40 ------- 0 0.1414 24.497 0 8545
r 0.297325 1 24 ack 40 ------- 0 16.954 24.336 0 5847
+ 0.298922 1 24 tcp 40 ------- 0 1.1357 12.368 0 10240
- 0.298922 1 24 tcp 40 ------- 0 1.1357 12.368 0 10240
r 0.301045 1 24 tcp 1540 ------- 0 0.1402 24.485 3 8706
r 0.301109 1 24 ack 40 ------- 0 1.1023 24.53 3 8849
+ 0.301622 1 24 tcp 1540 ------- 0 1.1952 24.565 7 10347
- 0.301622 1 24 tcp 1540 ------- 0 1.1952 24.565 7 10347
+ 0.301622 1 24 tcp 1540 ------- 0 1.1952 24.565 8 10348
r 0.303573 1 24 tcp 1540 ------- 0 0.1402 24.485 4 8707
+ 0.303991 1 24 tcp 1540 ------- 0 1.1485 14.437 1 10453
+ 0.303991 1 24 tcp 1540 ------- 0 1.1485 14.437 2 10454
+ 0.304086 1 24 tcp 1540 ------- 0 1.1952 24.565 9 10458
+ 0.304086 1 24 tcp 1540 ------- 0 1.1952 24.565 10 10459
- 0.304086 1 24 tcp 1540 ------- 0 1.1952 24.565 8 10348
+ 0.304407 1 24 tcp 40 ------- 0 1.1999 24.612 0 10470
r 0.306037 1 24 tcp 1540 ------- 0 0.1402 24.485 5 8709
r 0.306101 1 24 ack 40 ------- 0 21.1019 24.423 0 5056
r 0.306165 1 24 ack 40 ------- 0 1.1023 24.53 4 8957
- 0.30655 1 24 tcp 1540 ------- 0 1.1485 14.437 1 10453
+ 0.306614 1 24 tcp 1540 ------- 0 1.1952 24.565 11 10566
+ 0.306614 1 24 tcp 1540 ------- 0 1.1952 24.565 12 10567
+ 0.30784 1 24 tcp 1540 ------- 0 0.1410 24.493 1 10254
r 0.308629 1 24 tcp 1540 ------- 0 0.1402 24.485 6 8710
r 0.308693 1 24 tcp 40 ------- 0 16.423 14.976 0 6313
r 0.308757 1 24 ack 40 ------- 0 16.696 15.1239 0 6431
- 0.309014 1 24 tcp 1540 ------- 0 1.1485 14.437 2 10454
+ 0.309078 1 24 tcp 1540 ------- 0 1.1952 24.565 13 10658
+ 0.309078 1 24 tcp 1540 ------- 0 1.1952 24.565 14 10659
+ 0.309782 1 24 tcp 40 ------- 0 1.1368 13.464 0 10686
+ 0.31048 1 24 ack 40 ------- 0 9.1003 24.205 1 7424
d 0.31048 1 24 ack 40 ------- 0 9.1003 24.205 1 7424
+ 0.311189 1 24 tcp 40 ------- 0 1.1439 13.535 0 10729
d 0.311189 1 24 tcp 40 ------- 0 1.1439 13.535 0 10729
r 0.311221 1 24 tcp 1540 ------- 0 0.1420 24.503 3 8716
r 0.311285 1 24 ack 40 ------- 0 1.1023 24.53 5 9078
r 0.311349 1 24 tcp 40 ------- 0 1.1640 15.623 0 9088
- 0.311478 1 24 tcp 1540 ------- 0 1.1952 24.565 9 10458
+ 0.311542 1 24 ack 40 ------- 0 1.1006 24.36 3 10754
+ 0.313056 1 24 tcp 40 ------- 0 2.1246 24.652 0 9095
d 0.313056 1 24 tcp 40 ------- 0 2.1246 24.652 0 9095
r 0.313813 1 24 tcp 1540 ------- 0 0.1420 24.503 4 8717
r 0.313877 1 24 ack 40 ------- 0 1.1023 24.53 6 9176
r 0.313941 1 24 ack 40 ------- 0 1.566 12.50 0 9183
- 0.313942 1 24 tcp 1540 ------- 0 1.1952 24.565 10 10459
+ 0.314006 1 24 ack 40 ------- 0 1.1006 24.36 4 10860
r 0.316405 1 24 tcp 1540 ------- 0 0.1420 24.503 5 8955
- 0.316406 1 24 tcp 40 ------- 0 1.1999 24.612 0 10470
+ 0.31647 1 24 ack 40 ------- 0 1.1006 24.36 5 10957
- 0.31647 1 24 tcp 1540 ------- 0 1.1952 24.565 11 10566
+ 0.318061 1 24 tcp 40 ------- 0 1.1674 15.657 0 11009
+ 0.318144 1 24 tcp 40 ------- 0 2.1250 24.656 0 9647
d 0.318144 1 24 tcp 40 ------- 0 2.1250 24.656 0 9647
r 0.318869 1 24 tcp 1540 ------- 0 1.1537 15.520 1 9287
+ 0.318934 1 24 ack 40 ------- 0 1.1006 24.36 6 11046
d 0.318934 1 24 ack 40 ------- 0 1.1006 24.36 6 11046
- 0.318934 1 24 tcp 1540 ------- 0 1.1952 24.565 12 10567
+ 0.319168 1 24 ack 40 ------- 0 9.1003 24.205 2 7523
+ 0.319254 1 24 tcp 1540 ------- 0 1.1585 15.568 1 11064
d 0.319254 1 24 tcp 1540 ------- 0 1.1585 15.568 1 11064
+ 0.319254 1 24 tcp 1540 ------- 0 1.1585 15.568 2 11065
d 0.319254 1 24 tcp 1540 ------- 0 1.1585 15.568 2 11065
+ 0.319719 1 24 tcp 40 ------- 0 1.1470 14.422 0 11086
d 0.319719 1 24 tcp 40 ------- 0 1.1470 14.422 0 11086
r 0.321333 1 24 tcp 1540 ------- 0 1.1563 15.546 1 9291
- 0.321398 1 24 tcp 1540 ------- 0 0.1410 24.493 1 10254
+ 0.321718 1 24 ack 40 ------- 0 1.630 15.92 1 11184
+ 0.321846 1 24 tcp 1540 ------- 0 2.1240 24.646 3 9856
d 0.321846 1 24 tcp 1540 ------- 0 2.1240 24.646 3 9856
+ 0.322896 1 24 ack 40 ------- 0 6.902 24.143 0 8796
d 0.322896 1 24 ack 40 ------- 0 6.902 24.143 0 8796
+ 0.323142 1 24 tcp 1540 ------- 0 2.1240 24.646 4 9857
d 0.323142 1 24 tcp 1540 ------- 0 2.1240 24.646 4 9857
r 0.323797 1 24 tcp 1540 ------- 0 1.1417 13.513 1 9295
r 0.323839 1 24 rtProtoDV 26 ------- 0 1.2013 24.1022 -1 9394
- 0.323862 1 24 tcp 1540 ------- 0 1.1952 24.565 13 10658
r 0.323903 1 24 ack 40 ------- 0 16.683 14.1294 0 7081
r 0.323967 1 24 ack 40 ------- 0 16.948 24.330 0 7509
r 0.324031 1 24 tcp 40 ------- 0 1.1464 13.560 0 9601
+ 0.32431 1 24 ack 40 ------- 0 1.630 15.92 2 11276
+ 0.324406 1 24 tcp 1540 ------- 0 2.1240 24.646 5 9859
d 0.324406 1 24 tcp 1540 ------- 0 2.1240 24.646 5 9859
+ 0.325208 1 24 tcp 40 ------- 0 16.418 14.971 0 8432
d 0.325208 1 24 tcp 40 ------- 0 16.418 14.971 0 8432
+ 0.325336 1 24 tcp 40 ------- 0 16.409 14.962 0 8681
d 0.325336 1 24 tcp 40 ------- 0 16.409 14.962 0 8681
+ 0.32567 1 24 tcp 1540 ------- 0 2.1240 24.646 6 9860
d 0.32567 1 24 tcp 1540 ------- 0 2.1240 24.646 6 9860
+ 0.325734 1 24 tcp 40 ------- 0 0.1415 24.498 0 11227
d 0.325734 1 24 tcp 40 ------- 0 0.1415 24.498 0 11227
- 0.326326 1 24 tcp 1540 ------- 0 1.1952 24.565 14 10659
r 0.326495 1 24 tcp 1540 ------- 0 1.1625 15.608 1 9614
+ 0.326774 1 24 ack 40 ------- 0 1.655 15.117 1 11375
+ 0.326902 1 24 tcp 1540 ------- 0 1.1974 24.587 1 11382
d 0.326902 1 24 tcp 1540 ------- 0 1.1974 24.587 1 11382
+ 0.326902 1 24 tcp 1540 ------- 0 1.1974 24.587 2 11383
d 0.326902 1 24 tcp 1540 ------- 0 1.1974 24.587 2 11383
+ 0.327313 1 24 tcp 40 ------- 0 21.324 12.893 0 5786
d 0.327313 1 24 tcp 40 ------- 0 21.324 12.893 0 5786
- 0.32879 1 24 tcp 40 ------- 0 1.1368 13.464 0 10686
- 0.328854 1 24 ack 40 ------- 0 1.1006 24.36 3 10754
- 0.328918 1 24 ack 40 ------- 0 1.1006 24.36 4 10860
r 0.328959 1 24 tcp 1540 ------- 0 1.1625 15.608 2 9615
- 0.328982 1 24 ack 40 ------- 0 1.1006 24.36 5 10957
r 0.329023 1 24 tcp 40 ------- 0 1.1673 15.656 0 9751
- 0.329046 1 24 tcp 40 ------- 0 1.1674 15.657 0 11009
r 0.329087 1 24 tcp 40 ------- 0 1.2000 24.613 0 9799
- 0.32911 1 24 ack 40 ------- 0 9.1003 24.205 2 7523
r 0.329151 1 24 tcp 40 ------- 0 1.1313 12.324 0 9912
- 0.329174 1 24 ack 40 ------- 0 1.630 15.92 1 11184
r 0.329215 1 24 ack 40 ------- 0 1.606 15.68 0 9913
- 0.329238 1 24 ack 40 ------- 0 1.630 15.92 2 11276
r 0.329279 1 24 ack 40 ------- 0 6.911 24.152 0 7804
- 0.329302 1 24 ack 40 ------- 0 1.655 15.117 1 11375
r 0.329343 1 24 tcp 40 ------- 0 2.1232 24.638 0 8487
+ 0.329366 1 24 ack 40 ------- 0 1.655 15.117 2 11479
- 0.329366 1 24 ack 40 ------- 0 1.655 15.117 2 11479
r 0.329407 1 24 tcp 40 ------- 0 16.440 15.1073 0 7990
+ 0.32943 1 24 ack 40 ------- 0 1.573 12.57 0 11481
- 0.32943 1 24 ack 40 ------- 0 1.573 12.57 0 11481
+ 0.329494 1 24 tcp 1540 ------- 0 1.1621 15.604 1 11483
+ 0.329494 1 24 tcp 1540 ------- 0 1.1621 15.604 2 11484