+ 0.005202 3 5 tcp 40 ------- 0 3.847 5.341 0 91
- 0.005202 3 5 tcp 40 ------- 0 3.847 5.341 0 91
+ 0.006498 3 5 rtProtoDV 26 ------- 0 3.1518 5.1623 -1 139
- 0.006498 3 5 rtProtoDV 26 ------- 0 3.1518 5.1623 -1 139
+ 0.007814 3 5 tcp 40 ------- 0 3.835 5.329 0 194
- 0.007814 3 5 tcp 40 ------- 0 3.835 5.329 0 194
+ 0.009825 3 5 rtProtoDV 26 ------- 0 3.1518 5.1623 -1 279
- 0.009825 3 5 rtProtoDV 26 ------- 0 3.1518 5.1623 -1 279
+ 0.010657 3 5 rtProtoDV 26 ------- 0 3.1518 5.1623 -1 337
- 0.010657 3 5 rtProtoDV 26 ------- 0 3.1518 5.1623 -1 337
+ 0.011304 3 5 rtProtoDV 26 ------- 0 3.1518 5.1623 -1 383
- 0.011304 3 5 rtProtoDV 26 ------- 0 3.1518 5.1623 -1 383
+ 0.012269 3 5 rtProtoDV 26 ------- 0 3.1518 5.1623 -1 433
- 0.012269 3 5 rtProtoDV 26 ------- 0 3.1518 5.1623 -1 433
r 0.012353 3 5 tcp 40 ------- 0 3.847 5.341 0 91
r 0.013638 3 5 rtProtoDV 26 ------- 0 3.1518 5.1623 -1 139
r 0.014965 3 5 tcp 40 ------- 0 3.835 5.329 0 194
r 0.016964 3 5 rtProtoDV 26 ------- 0 3.1518 5.1623 -1 279
+ 0.017241 3 5 rtProtoDV 26 ------- 0 3.1518 5.1623 -1 651
- 0.017241 3 5 rtProtoDV 26 ------- 0 3.1518 5.1623 -1 651
r 0.017796 3 5 rtProtoDV 26 ------- 0 3.1518 5.1623 -1 337
r 0.018444 3 5 rtProtoDV 26 ------- 0 3.1518 5.1623 -1 383
r 0.019409 3 5 rtProtoDV 26 ------- 0 3.1518 5.1623 -1 433
+ 0.019503 3 5 tcp 1540 ------- 0 3.847 5.341 1 737
- 0.019503 3 5 tcp 1540 ------- 0 3.847 5.341 1 737
+ 0.019503 3 5 tcp 1540 ------- 0 3.847 5.341 2 738
- 0.020735 3 5 tcp 1540 ------- 0 3.847 5.341 2 738
+ 0.020872 3 5 rtProtoDV 26 ------- 0 3.1518 5.1623 -1 763
+ 0.020977 3 5 rtProtoDV 26 ------- 0 3.1518 5.1623 -1 769
- 0.021967 3 5 rtProtoDV 26 ------- 0 3.1518 5.1623 -1 763
- 0.021988 3 5 rtProtoDV 26 ------- 0 3.1518 5.1623 -1 769
+ 0.022115 3 5 tcp 1540 ------- 0 3.835 5.329 1 803
- 0.022115 3 5 tcp 1540 ------- 0 3.835 5.329 1 803
+ 0.022115 3 5 tcp 1540 ------- 0 3.835 5.329 2 804
+ 0.022124 3 5 tcp 40 ------- 0 3.1399 22.694 0 805
+ 0.023 3 5 rtProtoDV 26 ------- 0 3.1518 5.1623 -1 833
+ 0.023243 3 5 rtProtoDV 26 ------- 0 3.1518 5.1623 -1 839
- 0.023347 3 5 tcp 1540 ------- 0 3.835 5.329 2 804
r 0.02438 3 5 rtProtoDV 26 ------- 0 3.1518 5.1623 -1 651
- 0.024579 3 5 tcp 40 ------- 0 3.1399 22.694 0 805
- 0.024611 3 5 rtProtoDV 26 ------- 0 3.1518 5.1623 -1 833
- 0.024632 3 5 rtProtoDV 26 ------- 0 3.1518 5.1623 -1 839
+ 0.02718 3 5 tcp 40 ------- 0 3.1111 12.406 0 920
- 0.02718 3 5 tcp 40 ------- 0 3.1111 12.406 0 920
r 0.027854 3 5 tcp 1540 ------- 0 3.847 5.341 1 737
r 0.029086 3 5 tcp 1540 ------- 0 3.847 5.341 2 738
r 0.029107 3 5 rtProtoDV 26 ------- 0 3.1518 5.1623 -1 763
r 0.029128 3 5 rtProtoDV 26 ------- 0 3.1518 5.1623 -1 769
r 0.030466 3 5 tcp 1540 ------- 0 3.835 5.329 1 803
r 0.031698 3 5 tcp 1540 ------- 0 3.835 5.329 2 804
r 0.03173 3 5 tcp 40 ------- 0 3.1399 22.694 0 805
r 0.031751 3 5 rtProtoDV 26 ------- 0 3.1518 5.1623 -1 833
r 0.031772 3 5 rtProtoDV 26 ------- 0 3.1518 5.1623 -1 839
r 0.034331 3 5 tcp 40 ------- 0 3.1111 12.406 0 920
+ 0.035005 3 5 tcp 1540 ------- 0 3.847 5.341 3 1105
- 0.035005 3 5 tcp 1540 ------- 0 3.847 5.341 3 1105
+ 0.035005 3 5 tcp 1540 ------- 0 3.847 5.341 4 1106
- 0.036237 3 5 tcp 1540 ------- 0 3.847 5.341 4 1106
+ 0.036237 3 5 tcp 1540 ------- 0 3.847 5.341 5 1139
+ 0.036237 3 5 tcp 1540 ------- 0 3.847 5.341 6 1140
- 0.037469 3 5 tcp 1540 ------- 0 3.847 5.341 5 1139
+ 0.037617 3 5 tcp 1540 ------- 0 3.835 5.329 3 1176
+ 0.037617 3 5 tcp 1540 ------- 0 3.835 5.329 4 1177
+ 0.037962 3 5 ack 40 ------- 0 21.810 15.1371 0 1095
- 0.038701 3 5 tcp 1540 ------- 0 3.847 5.341 6 1140
+ 0.038849 3 5 tcp 1540 ------- 0 3.835 5.329 5 1195
+ 0.038849 3 5 tcp 1540 ------- 0 3.835 5.329 6 1196
- 0.039933 3 5 tcp 1540 ------- 0 3.835 5.329 3 1176
- 0.041165 3 5 tcp 1540 ------- 0 3.835 5.329 4 1177
- 0.042397 3 5 ack 40 ------- 0 21.810 15.1371 0 1095
- 0.042429 3 5 tcp 1540 ------- 0 3.835 5.329 5 1195
r 0.043355 3 5 tcp 1540 ------- 0 3.847 5.341 3 1105
- 0.043661 3 5 tcp 1540 ------- 0 3.835 5.329 6 1196
+ 0.044061 3 5 rtProtoDV 26 ------- 0 3.1518 5.1623 -1 1334
r 0.044587 3 5 tcp 1540 ------- 0 3.847 5.341 4 1106
- 0.044893 3 5 rtProtoDV 26 ------- 0 3.1518 5.1623 -1 1334
r 0.045819 3 5 tcp 1540 ------- 0 3.847 5.341 5 1139
r 0.047051 3 5 tcp 1540 ------- 0 3.847 5.341 6 1140
r 0.048283 3 5 tcp 1540 ------- 0 3.835 5.329 3 1176
+ 0.049297 3 5 tcp 40 ------- 0 3.1369 20.804 0 1465
- 0.049297 3 5 tcp 40 ------- 0 3.1369 20.804 0 1465
r 0.049515 3 5 tcp 1540 ------- 0 3.835 5.329 4 1177
r 0.049547 3 5 ack 40 ------- 0 21.810 15.1371 0 1095
+ 0.050506 3 5 tcp 1540 ------- 0 3.847 5.341 7 1492
- 0.050506 3 5 tcp 1540 ------- 0 3.847 5.341 7 1492
+ 0.050506 3 5 tcp 1540 ------- 0 3.847 5.341 8 1493
r 0.050779 3 5 tcp 1540 ------- 0 3.835 5.329 5 1195
+ 0.051738 3 5 tcp 1540 ------- 0 3.847 5.341 9 1527
+ 0.051738 3 5 tcp 1540 ------- 0 3.847 5.341 10 1528
- 0.051738 3 5 tcp 1540 ------- 0 3.847 5.341 8 1493
r 0.052011 3 5 tcp 1540 ------- 0 3.835 5.329 6 1196
r 0.052032 3 5 rtProtoDV 26 ------- 0 3.1518 5.1623 -1 1334
+ 0.05297 3 5 tcp 1540 ------- 0 3.847 5.341 11 1559
+ 0.05297 3 5 tcp 1540 ------- 0 3.847 5.341 12 1560
- 0.05297 3 5 tcp 1540 ------- 0 3.847 5.341 9 1527
+ 0.053279 3 5 tcp 40 ------- 0 3.839 5.333 0 1570
+ 0.054202 3 5 tcp 1540 ------- 0 3.847 5.341 13 1590
+ 0.054202 3 5 tcp 1540 ------- 0 3.847 5.341 14 1591
- 0.054202 3 5 tcp 1540 ------- 0 3.847 5.341 10 1528
+ 0.055434 3 5 tcp 1540 ------- 0 3.835 5.329 7 1630
+ 0.055434 3 5 tcp 1540 ------- 0 3.835 5.329 8 1631
- 0.055434 3 5 tcp 1540 ------- 0 3.847 5.341 11 1559
r 0.056448 3 5 tcp 40 ------- 0 3.1369 20.804 0 1465
+ 0.056666 3 5 tcp 1540 ------- 0 3.835 5.329 9 1658
+ 0.056666 3 5 tcp 1540 ------- 0 3.835 5.329 10 1659
- 0.056666 3 5 tcp 1540 ------- 0 3.847 5.341 12 1560
- 0.057898 3 5 tcp 40 ------- 0 3.839 5.333 0 1570
+ 0.05793 3 5 tcp 1540 ------- 0 3.835 5.329 11 1698
+ 0.05793 3 5 tcp 1540 ------- 0 3.835 5.329 12 1699
- 0.05793 3 5 tcp 1540 ------- 0 3.847 5.341 13 1590
r 0.058856 3 5 tcp 1540 ------- 0 3.847 5.341 7 1492
+ 0.059162 3 5 tcp 1540 ------- 0 3.835 5.329 13 1733
+ 0.059162 3 5 tcp 1540 ------- 0 3.835 5.329 14 1734
- 0.059162 3 5 tcp 1540 ------- 0 3.847 5.341 14 1591
+ 0.059725 3 5 tcp 40 ------- 0 3.1118 14.494 0 1750
r 0.060088 3 5 tcp 1540 ------- 0 3.847 5.341 8 1493
- 0.060394 3 5 tcp 1540 ------- 0 3.835 5.329 7 1630
r 0.06132 3 5 tcp 1540 ------- 0 3.847 5.341 9 1527
- 0.061626 3 5 tcp 1540 ------- 0 3.835 5.329 8 1631
r 0.062552 3 5 tcp 1540 ------- 0 3.847 5.341 10 1528
- 0.062858 3 5 tcp 1540 ------- 0 3.835 5.329 9 1658
r 0.063784 3 5 tcp 1540 ------- 0 3.847 5.341 11 1559
- 0.06409 3 5 tcp 1540 ------- 0 3.835 5.329 10 1659
r 0.065016 3 5 tcp 1540 ------- 0 3.847 5.341 12 1560
r 0.065048 3 5 tcp 40 ------- 0 3.839 5.333 0 1570
- 0.065322 3 5 tcp 1540 ------- 0 3.835 5.329 11 1698
+ 0.066007 3 5 tcp 1540 ------- 0 3.847 5.341 15 1922
+ 0.066007 3 5 tcp 1540 ------- 0 3.847 5.341 16 1923
r 0.06628 3 5 tcp 1540 ------- 0 3.847 5.341 13 1590
- 0.066554 3 5 tcp 1540 ------- 0 3.835 5.329 12 1699
+ 0.06702 3 5 tcp 40 ------- 0 21.220 5.925 0 1861
+ 0.067239 3 5 tcp 1540 ------- 0 3.847 5.341 17 1944
+ 0.067239 3 5 tcp 1540 ------- 0 3.847 5.341 18 1945
r 0.067512 3 5 tcp 1540 ------- 0 3.847 5.341 14 1591
- 0.067786 3 5 tcp 1540 ------- 0 3.835 5.329 13 1733
+ 0.067932 3 5 tcp 40 ------- 0 3.1125 14.501 0 1970
+ 0.068471 3 5 tcp 1540 ------- 0 3.847 5.341 19 1991
+ 0.068471 3 5 tcp 1540 ------- 0 3.847 5.341 20 1992
d 0.068471 3 5 tcp 1540 ------- 0 3.847 5.341 20 1992
r 0.068744 3 5 tcp 1540 ------- 0 3.835 5.329 7 1630
- 0.069018 3 5 tcp 1540 ------- 0 3.835 5.329 14 1734
+ 0.069703 3 5 tcp 1540 ------- 0 3.847 5.341 21 2036
+ 0.069703 3 5 tcp 1540 ------- 0 3.847 5.341 22 2037
d 0.069703 3 5 tcp 1540 ------- 0 3.847 5.341 22 2037
r 0.069976 3 5 tcp 1540 ------- 0 3.835 5.329 8 1631
- 0.07025 3 5 tcp 40 ------- 0 3.1118 14.494 0 1750
- 0.070282 3 5 tcp 1540 ------- 0 3.847 5.341 15 1922
+ 0.070935 3 5 tcp 1540 ------- 0 3.847 5.341 23 2073
+ 0.070935 3 5 tcp 1540 ------- 0 3.847 5.341 24 2074
r 0.071208 3 5 tcp 1540 ------- 0 3.835 5.329 9 1658
- 0.071514 3 5 tcp 1540 ------- 0 3.847 5.341 16 1923
+ 0.072167 3 5 tcp 1540 ------- 0 3.847 5.341 25 2128
+ 0.072167 3 5 tcp 1540 ------- 0 3.847 5.341 26 2129
d 0.072167 3 5 tcp 1540 ------- 0 3.847 5.341 26 2129
+ 0.072199 3 5 tcp 1540 ------- 0 3.839 5.333 1 2131
d 0.072199 3 5 tcp 1540 ------- 0 3.839 5.333 1 2131
+ 0.072199 3 5 tcp 1540 ------- 0 3.839 5.333 2 2132
d 0.072199 3 5 tcp 1540 ------- 0 3.839 5.333 2 2132
r 0.07244 3 5 tcp 1540 ------- 0 3.835 5.329 10 1659
- 0.072746 3 5 tcp 40 ------- 0 21.220 5.925 0 1861
- 0.072778 3 5 tcp 1540 ------- 0 3.847 5.341 17 1944
+ 0.073431 3 5 tcp 1540 ------- 0 3.847 5.341 27 2169
+ 0.073431 3 5 tcp 1540 ------- 0 3.847 5.341 28 2170
r 0.073672 3 5 tcp 1540 ------- 0 3.835 5.329 11 1698
- 0.07401 3 5 tcp 1540 ------- 0 3.847 5.341 18 1945
+ 0.074663 3 5 tcp 1540 ------- 0 3.847 5.341 29 2207
+ 0.074663 3 5 tcp 1540 ------- 0 3.847 5.341 30 2208
d 0.074663 3 5 tcp 1540 ------- 0 3.847 5.341 30 2208
r 0.074904 3 5 tcp 1540 ------- 0 3.835 5.329 12 1699
+ 0.074968 3 5 tcp 1540 ------- 0 3.1399 22.694 1 2218
d 0.074968 3 5 tcp 1540 ------- 0 3.1399 22.694 1 2218
+ 0.074968 3 5 tcp 1540 ------- 0 3.1399 22.694 2 2219
d 0.074968 3 5 tcp 1540 ------- 0 3.1399 22.694 2 2219
- 0.075242 3 5 tcp 40 ------- 0 3.1125 14.501 0 1970
- 0.075274 3 5 tcp 1540 ------- 0 3.847 5.341 19 1991
+ 0.075895 3 5 tcp 1540 ------- 0 3.835 5.329 15 2243
+ 0.075895 3 5 tcp 1540 ------- 0 3.835 5.329 16 2244
r 0.076136 3 5 tcp 1540 ------- 0 3.835 5.329 13 1733
- 0.076506 3 5 tcp 1540 ------- 0 3.847 5.341 21 2036
+ 0.077127 3 5 tcp 1540 ------- 0 3.835 5.329 17 2280
+ 0.077127 3 5 tcp 1540 ------- 0 3.835 5.329 18 2281
d 0.077127 3 5 tcp 1540 ------- 0 3.835 5.329 18 2281
r 0.077368 3 5 tcp 1540 ------- 0 3.835 5.329 14 1734
r 0.0774 3 5 tcp 40 ------- 0 3.1118 14.494 0 1750
+ 0.077444 3 5 tcp 1540 ------- 0 3.1111 12.406 1 2300
d 0.077444 3 5 tcp 1540 ------- 0 3.1111 12.406 1 2300
+ 0.077444 3 5 tcp 1540 ------- 0 3.1111 12.406 2 2301
d 0.077444 3 5 tcp 1540 ------- 0 3.1111 12.406 2 2301
- 0.077738 3 5 tcp 1540 ------- 0 3.847 5.341 23 2073
+ 0.078359 3 5 tcp 1540 ------- 0 3.835 5.329 19 2330
+ 0.078359 3 5 tcp 1540 ------- 0 3.835 5.329 20 2331
d 0.078359 3 5 tcp 1540 ------- 0 3.835 5.329 20 2331
r 0.078632 3 5 tcp 1540 ------- 0 3.847 5.341 15 1922
- 0.07897 3 5 tcp 1540 ------- 0 3.847 5.341 24 2074
+ 0.079591 3 5 tcp 1540 ------- 0 3.835 5.329 21 2378
+ 0.079591 3 5 tcp 1540 ------- 0 3.835 5.329 22 2379
d 0.079591 3 5 tcp 1540 ------- 0 3.835 5.329 22 2379
r 0.079864 3 5 tcp 1540 ------- 0 3.847 5.341 16 1923
r 0.079896 3 5 tcp 40 ------- 0 21.220 5.925 0 1861
- 0.080202 3 5 tcp 1540 ------- 0 3.847 5.341 25 2128
+ 0.080823 3 5 tcp 1540 ------- 0 3.835 5.329 23 2423
+ 0.080823 3 5 tcp 1540 ------- 0 3.835 5.329 24 2424
d 0.080823 3 5 tcp 1540 ------- 0 3.835 5.329 24 2424
r 0.081128 3 5 tcp 1540 ------- 0 3.847 5.341 17 1944
+ 0.081257 3 5 tcp 1540 ------- 0 3.1369 20.804 1 2437
d 0.081257 3 5 tcp 1540 ------- 0 3.1369 20.804 1 2437
+ 0.081257 3 5 tcp 1540 ------- 0 3.1369 20.804 2 2438
d 0.081257 3 5 tcp 1540 ------- 0 3.1369 20.804 2 2438
- 0.081434 3 5 tcp 1540 ------- 0 3.847 5.341 27 2169
+ 0.082055 3 5 tcp 1540 ------- 0 3.835 5.329 25 2460
+ 0.082055 3 5 tcp 1540 ------- 0 3.835 5.329 26 2461
d 0.082055 3 5 tcp 1540 ------- 0 3.835 5.329 26 2461
r 0.08236 3 5 tcp 1540 ------- 0 3.847 5.341 18 1945
r 0.082392 3 5 tcp 40 ------- 0 3.1125 14.501 0 1970
- 0.082666 3 5 tcp 1540 ------- 0 3.847 5.341 28 2170
+ 0.083048 3 5 ack 40 ------- 0 3.247 5.174 0 2494
+ 0.083287 3 5 tcp 1540 ------- 0 3.835 5.329 27 2503
d 0.083287 3 5 tcp 1540 ------- 0 3.835 5.329 27 2503
+ 0.083287 3 5 tcp 1540 ------- 0 3.835 5.329 28 2504
d 0.083287 3 5 tcp 1540 ------- 0 3.835 5.329 28 2504
r 0.083624 3 5 tcp 1540 ------- 0 3.847 5.341 19 1991
- 0.083898 3 5 tcp 1540 ------- 0 3.847 5.341 29 2207
+ 0.084519 3 5 tcp 1540 ------- 0 3.835 5.329 29 2537
+ 0.084519 3 5 tcp 1540 ------- 0 3.835 5.329 30 2538
d 0.084519 3 5 tcp 1540 ------- 0 3.835 5.329 30 2538
r 0.084856 3 5 tcp 1540 ------- 0 3.847 5.341 21 2036
- 0.08513 3 5 tcp 1540 ------- 0 3.835 5.329 15 2243
+ 0.085783 3 5 tcp 1540 ------- 0 3.847 5.341 31 2586
+ 0.085783 3 5 tcp 1540 ------- 0 3.847 5.341 32 2587
d 0.085783 3 5 tcp 1540 ------- 0 3.847 5.341 32 2587
r 0.086088 3 5 tcp 1540 ------- 0 3.847 5.341 23 2073
- 0.086362 3 5 tcp 1540 ------- 0 3.835 5.329 16 2244
+ 0.087015 3 5 tcp 1540 ------- 0 3.847 5.341 33 2626
+ 0.087015 3 5 tcp 1540 ------- 0 3.847 5.341 34 2627
d 0.087015 3 5 tcp 1540 ------- 0 3.847 5.341 34 2627
r 0.08732 3 5 tcp 1540 ------- 0 3.847 5.341 24 2074
- 0.087594 3 5 tcp 1540 ------- 0 3.835 5.329 17 2280
+ 0.088279 3 5 tcp 1540 ------- 0 3.847 5.341 35 2671
+ 0.088279 3 5 tcp 1540 ------- 0 3.847 5.341 36 2672
d 0.088279 3 5 tcp 1540 ------- 0 3.847 5.341 36 2672
r 0.088552 3 5 tcp 1540 ------- 0 3.847 5.341 25 2128
- 0.088826 3 5 tcp 1540 ------- 0 3.835 5.329 19 2330
+ 0.089511 3 5 tcp 1540 ------- 0 3.847 5.341 37 2715
+ 0.089511 3 5 tcp 1540 ------- 0 3.847 5.341 38 2716
d 0.089511 3 5 tcp 1540 ------- 0 3.847 5.341 38 2716
r 0.089784 3 5 tcp 1540 ------- 0 3.847 5.341 27 2169
- 0.090058 3 5 tcp 1540 ------- 0 3.835 5.329 21 2378
+ 0.090775 3 5 tcp 1540 ------- 0 3.847 5.341 39 2764
r 0.091016 3 5 tcp 1540 ------- 0 3.847 5.341 28 2170
+ 0.09125 3 5 ack 40 ------- 0 21.928 22.598 0 2063
d 0.09125 3 5 ack 40 ------- 0 21.928 22.598 0 2063
- 0.09129 3 5 tcp 1540 ------- 0 3.835 5.329 23 2423
r 0.092248 3 5 tcp 1540 ------- 0 3.847 5.341 29 2207
- 0.092522 3 5 tcp 1540 ------- 0 3.835 5.329 25 2460
r 0.09348 3 5 tcp 1540 ------- 0 3.835 5.329 15 2243
- 0.093754 3 5 ack 40 ------- 0 3.247 5.174 0 2494
- 0.093786 3 5 tcp 1540 ------- 0 3.835 5.329 29 2537
+ 0.094471 3 5 tcp 1540 ---A--- 0 3.847 5.341 20 2860
r 0.094712 3 5 tcp 1540 ------- 0 3.835 5.329 16 2244
- 0.095018 3 5 tcp 1540 ------- 0 3.847 5.341 31 2586
r 0.095944 3 5 tcp 1540 ------- 0 3.835 5.329 17 2280
- 0.09625 3 5 tcp 1540 ------- 0 3.847 5.341 33 2626
r 0.097176 3 5 tcp 1540 ------- 0 3.835 5.329 19 2330
- 0.097482 3 5 tcp 1540 ------- 0 3.847 5.341 35 2671
r 0.098408 3 5 tcp 1540 ------- 0 3.835 5.329 21 2378
- 0.098714 3 5 tcp 1540 ------- 0 3.847 5.341 37 2715
r 0.09964 3 5 tcp 1540 ------- 0 3.835 5.329 23 2423
- 0.099946 3 5 tcp 1540 ------- 0 3.847 5.341 39 2764
+ 0.100631 3 5 tcp 1540 ------- 0 3.835 5.329 31 3070
+ 0.100631 3 5 tcp 1540 ------- 0 3.835 5.329 32 3071
r 0.100872 3 5 tcp 1540 ------- 0 3.835 5.329 25 2460
r 0.100904 3 5 ack 40 ------- 0 3.247 5.174 0 2494
- 0.101178 3 5 tcp 1540 ---A--- 0 3.847 5.341 20 2860
+ 0.101863 3 5 tcp 1540 ------- 0 3.835 5.329 33 3123
+ 0.101863 3 5 tcp 1540 ------- 0 3.835 5.329 34 3124
r 0.102136 3 5 tcp 1540 ------- 0 3.835 5.329 29 2537
- 0.10241 3 5 tcp 1540 ------- 0 3.835 5.329 31 3070
+ 0.103095 3 5 tcp 1540 ------- 0 3.835 5.329 35 3162
+ 0.103095 3 5 tcp 1540 ------- 0 3.835 5.329 36 3163
r 0.103368 3 5 tcp 1540 ------- 0 3.847 5.341 31 2586
+ 0.103397 3 5 ack 40 ------- 0 3.203 5.130 0 3169
- 0.103642 3 5 tcp 1540 ------- 0 3.835 5.329 32 3071
+ 0.104327 3 5 tcp 1540 ------- 0 3.835 5.329 37 3213
r 0.1046 3 5 tcp 1540 ------- 0 3.847 5.341 33 2626
- 0.104874 3 5 tcp 1540 ------- 0 3.835 5.329 33 3123
r 0.105832 3 5 tcp 1540 ------- 0 3.847 5.341 35 2671
- 0.106106 3 5 tcp 1540 ------- 0 3.835 5.329 34 3124
+ 0.106455 3 5 tcp 40 ------- 0 3.1190 15.815 0 3275
+ 0.106791 3 5 tcp 1540 ---A--- 0 3.835 5.329 18 3281
r 0.107064 3 5 tcp 1540 ------- 0 3.847 5.341 37 2715
- 0.107338 3 5 tcp 1540 ------- 0 3.835 5.329 35 3162
r 0.108296 3 5 tcp 1540 ------- 0 3.847 5.341 39 2764
- 0.10857 3 5 tcp 1540 ------- 0 3.835 5.329 36 3163
+ 0.109255 3 5 ack 40 ------- 0 3.247 5.174 1 3359
r 0.109528 3 5 tcp 1540 ---A--- 0 3.847 5.341 20 2860
- 0.109802 3 5 ack 40 ------- 0 3.203 5.130 0 3169
- 0.109834 3 5 tcp 1540 ------- 0 3.835 5.329 37 3213
+ 0.110487 3 5 ack 40 ------- 0 3.247 5.174 2 3393
r 0.11076 3 5 tcp 1540 ------- 0 3.835 5.329 31 3070
- 0.111066 3 5 tcp 40 ------- 0 3.1190 15.815 0 3275
- 0.111098 3 5 tcp 1540 ---A--- 0 3.835 5.329 18 3281
r 0.111992 3 5 tcp 1540 ------- 0 3.835 5.329 32 3071
- 0.11233 3 5 ack 40 ------- 0 3.247 5.174 1 3359
- 0.112362 3 5 ack 40 ------- 0 3.247 5.174 2 3393
r 0.113224 3 5 tcp 1540 ------- 0 3.835 5.329 33 3123
r 0.114456 3 5 tcp 1540 ------- 0 3.835 5.329 34 3124
r 0.115688 3 5 tcp 1540 ------- 0 3.835 5.329 35 3162
+ 0.116679 3 5 tcp 1540 ------- 0 3.847 5.341 22 3570
- 0.116679 3 5 tcp 1540 ------- 0 3.847 5.341 22 3570
+ 0.116679 3 5 tcp 1540 ------- 0 3.847 5.341 23 3571
r 0.11692 3 5 tcp 1540 ------- 0 3.835 5.329 36 3163
r 0.116952 3 5 ack 40 ------- 0 3.203 5.130 0 3169
- 0.117911 3 5 tcp 1540 ------- 0 3.847 5.341 23 3571
r 0.118184 3 5 tcp 1540 ------- 0 3.835 5.329 37 3213
r 0.118216 3 5 tcp 40 ------- 0 3.1190 15.815 0 3275
r 0.119448 3 5 tcp 1540 ---A--- 0 3.835 5.329 18 3281
r 0.11948 3 5 ack 40 ------- 0 3.247 5.174 1 3359
r 0.119512 3 5 ack 40 ------- 0 3.247 5.174 2 3393
r 0.12503 3 5 tcp 1540 ------- 0 3.847 5.341 22 3570
+ 0.125303 3 5 ack 40 ------- 0 3.203 5.130 1 3857
- 0.125303 3 5 ack 40 ------- 0 3.203 5.130 1 3857
+ 0.126085 3 5 tcp 1540 ------- 0 21.220 5.925 1 2737
- 0.126085 3 5 tcp 1540 ------- 0 21.220 5.925 1 2737
r 0.126262 3 5 tcp 1540 ------- 0 3.847 5.341 23 3571
+ 0.126535 3 5 ack 40 ------- 0 3.203 5.130 2 3902
+ 0.126599 3 5 tcp 1540 ------- 0 3.835 5.329 20 3907
+ 0.126599 3 5 tcp 1540 ------- 0 3.835 5.329 21 3908
+ 0.126647 3 5 tcp 40 ------- 0 3.1124 14.500 0 3909
- 0.127317 3 5 ack 40 ------- 0 3.203 5.130 2 3902
- 0.127349 3 5 tcp 1540 ------- 0 3.835 5.329 20 3907
+ 0.127831 3 5 ack 40 ------- 0 3.247 5.174 3 3957
- 0.128581 3 5 tcp 1540 ------- 0 3.835 5.329 21 3908
+ 0.129063 3 5 ack 40 ------- 0 3.247 5.174 4 3990
- 0.129813 3 5 tcp 40 ------- 0 3.1124 14.500 0 3909
- 0.129845 3 5 ack 40 ------- 0 3.247 5.174 3 3957
- 0.129877 3 5 ack 40 ------- 0 3.247 5.174 4 3990
+ 0.130295 3 5 ack 40 ------- 0 3.247 5.174 5 4020
- 0.130295 3 5 ack 40 ------- 0 3.247 5.174 5 4020
+ 0.130529 3 5 tcp 40 ------- 0 3.1153 14.529 0 4025
- 0.130529 3 5 tcp 40 ------- 0 3.1153 14.529 0 4025
+ 0.131013 3 5 tcp 1540 ------- 0 21.220 5.925 2 2738
- 0.131013 3 5 tcp 1540 ------- 0 21.220 5.925 2 2738
+ 0.131527 3 5 ack 40 ------- 0 3.247 5.174 6 4063
+ 0.13218 3 5 tcp 1540 ------- 0 3.847 5.341 26 4076
+ 0.13218 3 5 tcp 1540 ------- 0 3.847 5.341 27 4077
+ 0.13218 3 5 tcp 1540 ------- 0 3.847 5.341 28 4078
- 0.132245 3 5 ack 40 ------- 0 3.247 5.174 6 4063
- 0.132277 3 5 tcp 1540 ------- 0 3.847 5.341 26 4076
r 0.132454 3 5 ack 40 ------- 0 3.203 5.130 1 3857
+ 0.133412 3 5 tcp 1540 ------- 0 3.847 5.341 29 4115
- 0.133509 3 5 tcp 1540 ------- 0 3.847 5.341 27 4077
r 0.134435 3 5 tcp 1540 ------- 0 21.220 5.925 1 2737
r 0.134467 3 5 ack 40 ------- 0 3.203 5.130 2 3902
- 0.134741 3 5 tcp 1540 ------- 0 3.847 5.341 28 4078
r 0.135699 3 5 tcp 1540 ------- 0 3.835 5.329 20 3907
- 0.135973 3 5 tcp 1540 ------- 0 3.847 5.341 29 4115
r 0.136931 3 5 tcp 1540 ------- 0 3.835 5.329 21 3908
r 0.136963 3 5 tcp 40 ------- 0 3.1124 14.500 0 3909
r 0.136995 3 5 ack 40 ------- 0 3.247 5.174 3 3957
r 0.137027 3 5 ack 40 ------- 0 3.247 5.174 4 3990
r 0.137446 3 5 ack 40 ------- 0 3.247 5.174 5 4020
r 0.137679 3 5 tcp 40 ------- 0 3.1153 14.529 0 4025
r 0.139363 3 5 tcp 1540 ------- 0 21.220 5.925 2 2738
r 0.139395 3 5 ack 40 ------- 0 3.247 5.174 6 4063
r 0.140627 3 5 tcp 1540 ------- 0 3.847 5.341 26 4076
+ 0.140804 3 5 ack 40 ------- 0 3.203 5.130 3 4343
- 0.140804 3 5 ack 40 ------- 0 3.203 5.130 3 4343
+ 0.141592 3 5 tcp 40 ------- 0 21.454 20.1283 0 3176
- 0.141592 3 5 tcp 40 ------- 0 21.454 20.1283 0 3176
+ 0.14172 3 5 tcp 40 ------- 0 21.1177 25.693 0 3205
- 0.14172 3 5 tcp 40 ------- 0 21.1177 25.693 0 3205
r 0.141859 3 5 tcp 1540 ------- 0 3.847 5.341 27 4077
+ 0.142036 3 5 ack 40 ------- 0 3.203 5.130 4 4382
- 0.142036 3 5 ack 40 ------- 0 3.203 5.130 4 4382
r 0.143091 3 5 tcp 1540 ------- 0 3.847 5.341 28 4078
+ 0.1433 3 5 ack 40 ------- 0 3.203 5.130 5 4421
- 0.1433 3 5 ack 40 ------- 0 3.203 5.130 5 4421
r 0.144323 3 5 tcp 1540 ------- 0 3.847 5.341 29 4115
+ 0.144532 3 5 ack 40 ------- 0 3.203 5.130 6 4462
- 0.144532 3 5 ack 40 ------- 0 3.203 5.130 6 4462
+ 0.144564 3 5 tcp 1540 ------- 0 3.835 5.329 22 4463
+ 0.144564 3 5 tcp 1540 ------- 0 3.835 5.329 23 4464
+ 0.144564 3 5 tcp 1540 ------- 0 3.835 5.329 24 4465
- 0.144564 3 5 tcp 1540 ------- 0 3.835 5.329 22 4463
+ 0.144596 3 5 tcp 1540 ------- 0 3.835 5.329 25 4467
- 0.145796 3 5 tcp 1540 ------- 0 3.835 5.329 23 4464
+ 0.145828 3 5 ack 40 ------- 0 3.247 5.174 7 4513
- 0.147028 3 5 tcp 1540 ------- 0 3.835 5.329 24 4465
+ 0.14706 3 5 ack 40 ------- 0 3.247 5.174 8 4567
r 0.147955 3 5 ack 40 ------- 0 3.203 5.130 3 4343
- 0.14826 3 5 tcp 1540 ------- 0 3.835 5.329 25 4467
+ 0.148292 3 5 ack 40 ------- 0 3.247 5.174 9 4620
r 0.148743 3 5 tcp 40 ------- 0 21.454 20.1283 0 3176
r 0.148871 3 5 tcp 40 ------- 0 21.1177 25.693 0 3205
r 0.149187 3 5 ack 40 ------- 0 3.203 5.130 4 4382
- 0.149492 3 5 ack 40 ------- 0 3.247 5.174 7 4513
+ 0.149524 3 5 ack 40 ------- 0 3.247 5.174 10 4662
- 0.149524 3 5 ack 40 ------- 0 3.247 5.174 8 4567
- 0.149556 3 5 ack 40 ------- 0 3.247 5.174 9 4620
- 0.149588 3 5 ack 40 ------- 0 3.247 5.174 10 4662
r 0.150451 3 5 ack 40 ------- 0 3.203 5.130 5 4421
+ 0.150756 3 5 ack 40 ------- 0 3.247 5.174 11 4708
- 0.150756 3 5 ack 40 ------- 0 3.247 5.174 11 4708
r 0.151683 3 5 ack 40 ------- 0 3.203 5.130 6 4462
+ 0.15196 3 5 tcp 40 ------- 0 21.1126 25.642 0 3251
- 0.15196 3 5 tcp 40 ------- 0 21.1126 25.642 0 3251
+ 0.151988 3 5 ack 40 ------- 0 3.247 5.174 12 4732
- 0.151992 3 5 ack 40 ------- 0 3.247 5.174 12 4732
+ 0.152299 3 5 tcp 40 ------- 0 21.1146 25.662 0 3376
- 0.152299 3 5 tcp 40 ------- 0 21.1146 25.662 0 3376
r 0.152915 3 5 tcp 1540 ------- 0 3.835 5.329 22 4463
+ 0.153252 3 5 ack 40 ------- 0 3.247 5.174 13 4770
- 0.153252 3 5 ack 40 ------- 0 3.247 5.174 13 4770
r 0.154147 3 5 tcp 1540 ------- 0 3.835 5.329 23 4464
+ 0.154484 3 5 ack 40 ------- 0 3.247 5.174 14 4817
- 0.154484 3 5 ack 40 ------- 0 3.247 5.174 14 4817
+ 0.154516 3 5 tcp 1540 ------- 0 3.847 5.341 30 4819
+ 0.154516 3 5 tcp 1540 ------- 0 3.847 5.341 31 4820
+ 0.154516 3 5 tcp 1540 ------- 0 3.847 5.341 32 4821
+ 0.154516 3 5 tcp 1540 ------- 0 3.847 5.341 33 4822
- 0.154516 3 5 tcp 1540 ------- 0 3.847 5.341 30 4819
+ 0.154548 3 5 tcp 1540 ------- 0 3.847 5.341 34 4828
+ 0.15458 3 5 tcp 1540 ------- 0 3.847 5.341 35 4831
r 0.155379 3 5 tcp 1540 ------- 0 3.835 5.329 24 4465
- 0.155748 3 5 tcp 1540 ------- 0 3.847 5.341 31 4820
+ 0.156306 3 5 ack 40 ------- 0 3.203 5.130 7 4886
r 0.156611 3 5 tcp 1540 ------- 0 3.835 5.329 25 4467
r 0.156643 3 5 ack 40 ------- 0 3.247 5.174 7 4513
r 0.156675 3 5 ack 40 ------- 0 3.247 5.174 8 4567
r 0.156707 3 5 ack 40 ------- 0 3.247 5.174 9 4620
r 0.156739 3 5 ack 40 ------- 0 3.247 5.174 10 4662
- 0.15698 3 5 tcp 1540 ------- 0 3.847 5.341 32 4821
+ 0.157538 3 5 ack 40 ------- 0 3.203 5.130 8 4933
r 0.157907 3 5 ack 40 ------- 0 3.247 5.174 11 4708
- 0.158212 3 5 tcp 1540 ------- 0 3.847 5.341 33 4822
+ 0.15877 3 5 ack 40 ------- 0 3.203 5.130 9 4964
r 0.159111 3 5 tcp 40 ------- 0 21.1126 25.642 0 3251
r 0.159143 3 5 ack 40 ------- 0 3.247 5.174 12 4732
- 0.159444 3 5 tcp 1540 ------- 0 3.847 5.341 34 4828
r 0.15945 3 5 tcp 40 ------- 0 21.1146 25.662 0 3376
+ 0.160002 3 5 ack 40 ------- 0 3.203 5.130 10 5006
r 0.160403 3 5 ack 40 ------- 0 3.247 5.174 13 4770
- 0.160676 3 5 tcp 1540 ------- 0 3.847 5.341 35 4831
+ 0.161234 3 5 ack 40 ------- 0 3.203 5.130 11 5078
r 0.161635 3 5 ack 40 ------- 0 3.247 5.174 14 4817
- 0.161908 3 5 ack 40 ------- 0 3.203 5.130 7 4886
- 0.16194 3 5 ack 40 ------- 0 3.203 5.130 8 4933
- 0.161972 3 5 ack 40 ------- 0 3.203 5.130 9 4964
- 0.162004 3 5 ack 40 ------- 0 3.203 5.130 10 5006
- 0.162036 3 5 ack 40 ------- 0 3.203 5.130 11 5078
+ 0.162466 3 5 ack 40 ------- 0 3.203 5.130 12 5121
- 0.162466 3 5 ack 40 ------- 0 3.203 5.130 12 5121
r 0.162867 3 5 tcp 1540 ------- 0 3.847 5.341 30 4819
+ 0.163698 3 5 ack 40 ------- 0 3.203 5.130 13 5176
- 0.163698 3 5 ack 40 ------- 0 3.203 5.130 13 5176
r 0.164099 3 5 tcp 1540 ------- 0 3.847 5.341 31 4820
+ 0.16493 3 5 ack 40 ------- 0 3.203 5.130 14 5208
- 0.16493 3 5 ack 40 ------- 0 3.203 5.130 14 5208
+ 0.164962 3 5 tcp 1540 ------- 0 3.835 5.329 26 5212
+ 0.164962 3 5 tcp 1540 ------- 0 3.835 5.329 27 5213
- 0.164962 3 5 tcp 1540 ------- 0 3.835 5.329 26 5212
+ 0.164994 3 5 tcp 1540 ------- 0 3.835 5.329 28 5215
+ 0.165026 3 5 tcp 1540 ------- 0 3.835 5.329 29 5218
+ 0.165026 3 5 tcp 1540 ------- 0 3.835 5.329 30 5219
+ 0.16509 3 5 tcp 1540 ------- 0 3.835 5.329 31 5223
r 0.165331 3 5 tcp 1540 ------- 0 3.847 5.341 32 4821
- 0.166194 3 5 tcp 1540 ------- 0 3.835 5.329 27 5213
+ 0.166322 3 5 ack 40 ------- 0 3.247 5.174 15 5278
r 0.166563 3 5 tcp 1540 ------- 0 3.847 5.341 33 4822
- 0.167426 3 5 tcp 1540 ------- 0 3.835 5.329 28 5215
+ 0.167554 3 5 ack 40 ------- 0 3.247 5.174 16 5321
r 0.167795 3 5 tcp 1540 ------- 0 3.847 5.341 34 4828
- 0.168658 3 5 tcp 1540 ------- 0 3.835 5.329 29 5218
+ 0.168786 3 5 ack 40 ------- 0 3.247 5.174 17 5361
r 0.169027 3 5 tcp 1540 ------- 0 3.847 5.341 35 4831
r 0.169059 3 5 ack 40 ------- 0 3.203 5.130 7 4886
r 0.169091 3 5 ack 40 ------- 0 3.203 5.130 8 4933
r 0.169123 3 5 ack 40 ------- 0 3.203 5.130 9 4964
r 0.169155 3 5 ack 40 ------- 0 3.203 5.130 10 5006
r 0.169187 3 5 ack 40 ------- 0 3.203 5.130 11 5078
r 0.169616 3 5 ack 40 ------- 0 3.203 5.130 12 5121
- 0.16989 3 5 tcp 1540 ------- 0 3.835 5.329 30 5219
+ 0.170018 3 5 ack 40 ------- 0 3.247 5.174 18 5415
+ 0.170256 3 5 tcp 40 ------- 0 3.1107 12.402 0 5420
r 0.170848 3 5 ack 40 ------- 0 3.203 5.130 13 5176
+ 0.170914 3 5 tcp 40 ------- 0 3.1184 15.809 0 5457
- 0.171122 3 5 tcp 1540 ------- 0 3.835 5.329 31 5223
+ 0.17125 3 5 ack 40 ------- 0 3.247 5.174 19 5491
r 0.17208 3 5 ack 40 ------- 0 3.203 5.130 14 5208
+ 0.172084 3 5 tcp 40 ------- 0 3.1156 14.532 0 5535
- 0.172354 3 5 ack 40 ------- 0 3.247 5.174 15 5278
- 0.172386 3 5 ack 40 ------- 0 3.247 5.174 16 5321
- 0.172418 3 5 ack 40 ------- 0 3.247 5.174 17 5361
- 0.17245 3 5 ack 40 ------- 0 3.247 5.174 18 5415
+ 0.172482 3 5 ack 40 ------- 0 3.247 5.174 20 5567
- 0.172482 3 5 tcp 40 ------- 0 3.1107 12.402 0 5420
- 0.172514 3 5 tcp 40 ------- 0 3.1184 15.809 0 5457
- 0.172546 3 5 ack 40 ------- 0 3.247 5.174 19 5491
- 0.172578 3 5 tcp 40 ------- 0 3.1156 14.532 0 5535
- 0.17261 3 5 ack 40 ------- 0 3.247 5.174 20 5567
+ 0.172988 3 5 tcp 40 ------- 0 3.1133 14.509 0 5579
- 0.172988 3 5 tcp 40 ------- 0 3.1133 14.509 0 5579
+ 0.173291 3 5 ack 40 ------- 0 3.468 15.144 0 5591
- 0.173291 3 5 ack 40 ------- 0 3.468 15.144 0 5591
r 0.173312 3 5 tcp 1540 ------- 0 3.835 5.329 26 5212
+ 0.173714 3 5 ack 40 ------- 0 3.247 5.174 21 5607
- 0.173714 3 5 ack 40 ------- 0 3.247 5.174 21 5607
r 0.174544 3 5 tcp 1540 ------- 0 3.835 5.329 27 5213
+ 0.174946 3 5 ack 40 ------- 0 3.247 5.174 22 5649
- 0.174946 3 5 ack 40 ------- 0 3.247 5.174 22 5649
r 0.175776 3 5 tcp 1540 ------- 0 3.835 5.329 28 5215
+ 0.176178 3 5 ack 40 ------- 0 3.247 5.174 23 5694
- 0.176178 3 5 ack 40 ------- 0 3.247 5.174 23 5694
r 0.177008 3 5 tcp 1540 ------- 0 3.835 5.329 29 5218
+ 0.17741 3 5 ack 40 ------- 0 3.247 5.174 24 5740
- 0.17741 3 5 ack 40 ------- 0 3.247 5.174 24 5740
r 0.17824 3 5 tcp 1540 ------- 0 3.835 5.329 30 5219
+ 0.178642 3 5 ack 40 ------- 0 3.247 5.174 25 5772
- 0.178642 3 5 ack 40 ------- 0 3.247 5.174 25 5772
r 0.179472 3 5 tcp 1540 ------- 0 3.835 5.329 31 5223
r 0.179504 3 5 ack 40 ------- 0 3.247 5.174 15 5278
r 0.179536 3 5 ack 40 ------- 0 3.247 5.174 16 5321
r 0.179568 3 5 ack 40 ------- 0 3.247 5.174 17 5361
r 0.1796 3 5 ack 40 ------- 0 3.247 5.174 18 5415
r 0.179632 3 5 tcp 40 ------- 0 3.1107 12.402 0 5420
r 0.179664 3 5 tcp 40 ------- 0 3.1184 15.809 0 5457
r 0.179696 3 5 ack 40 ------- 0 3.247 5.174 19 5491
r 0.179728 3 5 tcp 40 ------- 0 3.1156 14.532 0 5535
r 0.17976 3 5 ack 40 ------- 0 3.247 5.174 20 5567
+ 0.179874 3 5 ack 40 ------- 0 3.247 5.174 26 5814
- 0.179874 3 5 ack 40 ------- 0 3.247 5.174 26 5814
r 0.180138 3 5 tcp 40 ------- 0 3.1133 14.509 0 5579
r 0.180441 3 5 ack 40 ------- 0 3.468 15.144 0 5591
+ 0.180625 3 5 tcp 40 ------- 0 3.1121 14.497 0 5830
- 0.180625 3 5 tcp 40 ------- 0 3.1121 14.497 0 5830
r 0.180864 3 5 ack 40 ------- 0 3.247 5.174 21 5607
+ 0.181106 3 5 ack 40 ------- 0 3.247 5.174 27 5848
- 0.181106 3 5 ack 40 ------- 0 3.247 5.174 27 5848
r 0.182096 3 5 ack 40 ------- 0 3.247 5.174 22 5649
+ 0.182338 3 5 ack 40 ------- 0 3.247 5.174 28 5889
- 0.182338 3 5 ack 40 ------- 0 3.247 5.174 28 5889
r 0.183328 3 5 ack 40 ------- 0 3.247 5.174 23 5694
+ 0.18357 3 5 ack 40 ------- 0 3.247 5.174 29 5926
- 0.18357 3 5 ack 40 ------- 0 3.247 5.174 29 5926
r 0.18456 3 5 ack 40 ------- 0 3.247 5.174 24 5740
+ 0.184802 3 5 ack 40 ------- 0 3.247 5.174 30 5963
- 0.184802 3 5 ack 40 ------- 0 3.247 5.174 30 5963
+ 0.184834 3 5 tcp 1540 ------- 0 3.847 5.341 36 5965
- 0.184834 3 5 tcp 1540 ------- 0 3.847 5.341 36 5965
+ 0.184866 3 5 tcp 1540 ------- 0 3.847 5.341 37 5967
+ 0.184898 3 5 tcp 1540 ------- 0 3.847 5.341 38 5970
+ 0.184898 3 5 tcp 1540 ------- 0 3.847 5.341 39 5971
+ 0.184994 3 5 tcp 1540 ------- 0 3.847 5.341 40 5973
+ 0.185026 3 5 tcp 1540 ------- 0 3.847 5.341 41 5975
+ 0.185026 3 5 tcp 1540 ------- 0 3.847 5.341 42 5976
+ 0.185058 3 5 tcp 1540 ------- 0 3.847 5.341 43 5977
r 0.185792 3 5 ack 40 ------- 0 3.247 5.174 25 5772
- 0.186066 3 5 tcp 1540 ------- 0 3.847 5.341 37 5967
+ 0.18629 3 5 ack 40 ------- 0 3.203 5.130 15 6016
r 0.187024 3 5 ack 40 ------- 0 3.247 5.174 26 5814
- 0.187298 3 5 tcp 1540 ------- 0 3.847 5.341 38 5970
+ 0.187522 3 5 ack 40 ------- 0 3.203 5.130 16 6047