+ 0.00017 0 4 rtProtoDV 26 ------- 0 0.1454 4.1386 -1 4
- 0.00017 0 4 rtProtoDV 26 ------- 0 0.1454 4.1386 -1 4
r 0.002645 0 4 rtProtoDV 26 ------- 0 0.1454 4.1386 -1 4
+ 0.003496 0 4 rtProtoDV 26 ------- 0 0.1454 4.1386 -1 49
- 0.003496 0 4 rtProtoDV 26 ------- 0 0.1454 4.1386 -1 49
+ 0.004328 0 4 rtProtoDV 26 ------- 0 0.1454 4.1386 -1 66
- 0.004328 0 4 rtProtoDV 26 ------- 0 0.1454 4.1386 -1 66
+ 0.00512 0 4 rtProtoDV 26 ------- 0 0.1454 4.1386 -1 87
- 0.00512 0 4 rtProtoDV 26 ------- 0 0.1454 4.1386 -1 87
+ 0.005689 0 4 rtProtoDV 26 ------- 0 0.1454 4.1386 -1 113
- 0.005689 0 4 rtProtoDV 26 ------- 0 0.1454 4.1386 -1 113
+ 0.005941 0 4 rtProtoDV 26 ------- 0 0.1454 4.1386 -1 119
- 0.005941 0 4 rtProtoDV 26 ------- 0 0.1454 4.1386 -1 119
r 0.005971 0 4 rtProtoDV 26 ------- 0 0.1454 4.1386 -1 49
r 0.006804 0 4 rtProtoDV 26 ------- 0 0.1454 4.1386 -1 66
r 0.007596 0 4 rtProtoDV 26 ------- 0 0.1454 4.1386 -1 87
+ 0.00816 0 4 rtProtoDV 26 ------- 0 0.1454 4.1386 -1 216
- 0.00816 0 4 rtProtoDV 26 ------- 0 0.1454 4.1386 -1 216
r 0.008165 0 4 rtProtoDV 26 ------- 0 0.1454 4.1386 -1 113
+ 0.008404 0 4 ack 40 ------- 0 0.152 5.0 0 224
- 0.008404 0 4 ack 40 ------- 0 0.152 5.0 0 224
r 0.008416 0 4 rtProtoDV 26 ------- 0 0.1454 4.1386 -1 119
+ 0.009813 0 4 tcp 40 ------- 0 1.1141 4.134 0 125
- 0.009813 0 4 tcp 40 ------- 0 1.1141 4.134 0 125
r 0.010635 0 4 rtProtoDV 26 ------- 0 0.1454 4.1386 -1 216
r 0.01089 0 4 ack 40 ------- 0 0.152 5.0 0 224
+ 0.010912 0 4 rtProtoDV 26 ------- 0 0.1454 4.1386 -1 356
- 0.010912 0 4 rtProtoDV 26 ------- 0 0.1454 4.1386 -1 356
+ 0.011022 0 4 tcp 40 ------- 0 10.112 4.378 0 106
- 0.011022 0 4 tcp 40 ------- 0 10.112 4.378 0 106
+ 0.012 0 4 tcp 40 ------- 0 1.1703 15.686 0 285
- 0.012 0 4 tcp 40 ------- 0 1.1703 15.686 0 285
r 0.0123 0 4 tcp 40 ------- 0 1.1141 4.134 0 125
r 0.013388 0 4 rtProtoDV 26 ------- 0 0.1454 4.1386 -1 356
r 0.013508 0 4 tcp 40 ------- 0 10.112 4.378 0 106
r 0.014486 0 4 tcp 40 ------- 0 1.1703 15.686 0 285
+ 0.014544 0 4 rtProtoDV 26 ------- 0 0.1454 4.1386 -1 543
- 0.014544 0 4 rtProtoDV 26 ------- 0 0.1454 4.1386 -1 543
+ 0.014807 0 4 rtProtoDV 26 ------- 0 0.1454 4.1386 -1 555
- 0.014807 0 4 rtProtoDV 26 ------- 0 0.1454 4.1386 -1 555
+ 0.016672 0 4 rtProtoDV 26 ------- 0 0.1454 4.1386 -1 621
- 0.016672 0 4 rtProtoDV 26 ------- 0 0.1454 4.1386 -1 621
r 0.017019 0 4 rtProtoDV 26 ------- 0 0.1454 4.1386 -1 543
+ 0.017059 0 4 rtProtoDV 26 ------- 0 0.1454 4.1386 -1 643
- 0.017059 0 4 rtProtoDV 26 ------- 0 0.1454 4.1386 -1 643
r 0.017283 0 4 rtProtoDV 26 ------- 0 0.1454 4.1386 -1 555
+ 0.01736 0 4 tcp 40 ------- 0 2.1067 15.785 0 538
- 0.01736 0 4 tcp 40 ------- 0 2.1067 15.785 0 538
+ 0.017658 0 4 tcp 40 ------- 0 16.158 4.593 0 296
- 0.017658 0 4 tcp 40 ------- 0 16.158 4.593 0 296
+ 0.018838 0 4 ack 40 ------- 0 0.152 5.0 1 708
- 0.018838 0 4 ack 40 ------- 0 0.152 5.0 1 708
r 0.019147 0 4 rtProtoDV 26 ------- 0 0.1454 4.1386 -1 621
r 0.019534 0 4 rtProtoDV 26 ------- 0 0.1454 4.1386 -1 643
+ 0.019716 0 4 tcp 40 ------- 0 0.1125 14.358 0 744
- 0.019716 0 4 tcp 40 ------- 0 0.1125 14.358 0 744
r 0.019847 0 4 tcp 40 ------- 0 2.1067 15.785 0 538
+ 0.02007 0 4 ack 40 ------- 0 0.152 5.0 2 748
- 0.02007 0 4 ack 40 ------- 0 0.152 5.0 2 748
r 0.020145 0 4 tcp 40 ------- 0 16.158 4.593 0 296
r 0.021325 0 4 ack 40 ------- 0 0.152 5.0 1 708
+ 0.021775 0 4 tcp 1540 ------- 0 1.1141 4.134 1 630
- 0.021775 0 4 tcp 1540 ------- 0 1.1141 4.134 1 630
r 0.022203 0 4 tcp 40 ------- 0 0.1125 14.358 0 744
r 0.022557 0 4 ack 40 ------- 0 0.152 5.0 2 748
+ 0.023007 0 4 tcp 1540 ------- 0 1.1141 4.134 2 631
- 0.023007 0 4 tcp 1540 ------- 0 1.1141 4.134 2 631
r 0.025461 0 4 tcp 1540 ------- 0 1.1141 4.134 1 630
+ 0.025898 0 4 tcp 40 ------- 0 0.1114 14.347 0 891
- 0.025898 0 4 tcp 40 ------- 0 0.1114 14.347 0 891
+ 0.026478 0 4 tcp 40 ------- 0 18.269 15.1098 0 848
- 0.026478 0 4 tcp 40 ------- 0 18.269 15.1098 0 848
r 0.026693 0 4 tcp 1540 ------- 0 1.1141 4.134 2 631
r 0.028384 0 4 tcp 40 ------- 0 0.1114 14.347 0 891
r 0.028965 0 4 tcp 40 ------- 0 18.269 15.1098 0 848
+ 0.029273 0 4 ack 40 ------- 0 0.152 5.0 3 976
- 0.029273 0 4 ack 40 ------- 0 0.152 5.0 3 976
+ 0.03033 0 4 tcp 1540 ------- 0 10.112 4.378 1 786
- 0.03033 0 4 tcp 1540 ------- 0 10.112 4.378 1 786
+ 0.030569 0 4 ack 40 ------- 0 0.152 5.0 4 1008
- 0.031562 0 4 ack 40 ------- 0 0.152 5.0 4 1008
+ 0.031562 0 4 tcp 1540 ------- 0 10.112 4.378 2 787
- 0.031594 0 4 tcp 1540 ------- 0 10.112 4.378 2 787
r 0.03176 0 4 ack 40 ------- 0 0.152 5.0 3 976
+ 0.031833 0 4 ack 40 ------- 0 0.152 5.0 5 1041
- 0.032826 0 4 ack 40 ------- 0 0.152 5.0 5 1041
+ 0.0329 0 4 tcp 40 ------- 0 0.1096 14.329 0 1063
- 0.0329 0 4 tcp 40 ------- 0 0.1096 14.329 0 1063
+ 0.033065 0 4 ack 40 ------- 0 0.152 5.0 6 1066
- 0.033065 0 4 ack 40 ------- 0 0.152 5.0 6 1066
r 0.034016 0 4 tcp 1540 ------- 0 10.112 4.378 1 786
r 0.034048 0 4 ack 40 ------- 0 0.152 5.0 4 1008
+ 0.034154 0 4 tcp 40 ------- 0 2.989 15.707 0 949
- 0.034154 0 4 tcp 40 ------- 0 2.989 15.707 0 949
+ 0.034907 0 4 tcp 40 ------- 0 0.1018 13.388 0 1099
- 0.034907 0 4 tcp 40 ------- 0 0.1018 13.388 0 1099
+ 0.035001 0 4 tcp 40 ------- 0 17.187 5.828 0 1069
- 0.035001 0 4 tcp 40 ------- 0 17.187 5.828 0 1069
r 0.03528 0 4 tcp 1540 ------- 0 10.112 4.378 2 787
r 0.035312 0 4 ack 40 ------- 0 0.152 5.0 5 1041
r 0.035386 0 4 tcp 40 ------- 0 0.1096 14.329 0 1063
r 0.035552 0 4 ack 40 ------- 0 0.152 5.0 6 1066
r 0.03664 0 4 tcp 40 ------- 0 2.989 15.707 0 949
+ 0.036682 0 4 tcp 40 ------- 0 2.1044 15.762 0 1034
- 0.036682 0 4 tcp 40 ------- 0 2.1044 15.762 0 1034
+ 0.036746 0 4 ack 40 ------- 0 10.388 5.1151 0 1004
- 0.036746 0 4 ack 40 ------- 0 10.388 5.1151 0 1004
+ 0.037199 0 4 tcp 40 ------- 0 17.365 12.732 0 1122
- 0.037199 0 4 tcp 40 ------- 0 17.365 12.732 0 1122
r 0.037394 0 4 tcp 40 ------- 0 0.1018 13.388 0 1099
r 0.037488 0 4 tcp 40 ------- 0 17.187 5.828 0 1069
+ 0.037966 0 4 tcp 1540 ------- 0 0.1125 14.358 1 1180
- 0.037966 0 4 tcp 1540 ------- 0 0.1125 14.358 1 1180
+ 0.037966 0 4 tcp 1540 ------- 0 0.1125 14.358 2 1181
+ 0.038684 0 4 tcp 40 ------- 0 10.114 4.380 0 1070
+ 0.039147 0 4 ack 40 ------- 0 19.885 5.1517 0 917
r 0.039168 0 4 tcp 40 ------- 0 2.1044 15.762 0 1034
- 0.039198 0 4 tcp 1540 ------- 0 0.1125 14.358 2 1181
r 0.039232 0 4 ack 40 ------- 0 10.388 5.1151 0 1004
+ 0.039333 0 4 ack 40 ------- 0 17.953 13.1308 0 1178
r 0.039686 0 4 tcp 40 ------- 0 17.365 12.732 0 1122
- 0.04043 0 4 tcp 40 ------- 0 10.114 4.380 0 1070
- 0.040462 0 4 ack 40 ------- 0 19.885 5.1517 0 917
+ 0.040481 0 4 tcp 40 ------- 0 0.1051 13.421 0 1243
- 0.040494 0 4 ack 40 ------- 0 17.953 13.1308 0 1178
+ 0.040506 0 4 ack 40 ------- 0 0.152 5.0 7 1245
- 0.040526 0 4 tcp 40 ------- 0 0.1051 13.421 0 1243
- 0.040558 0 4 ack 40 ------- 0 0.152 5.0 7 1245
r 0.041652 0 4 tcp 1540 ------- 0 0.1125 14.358 1 1180
+ 0.041751 0 4 tcp 1540 ------- 0 1.1703 15.686 1 958
- 0.041751 0 4 tcp 1540 ------- 0 1.1703 15.686 1 958
+ 0.04177 0 4 ack 40 ------- 0 0.152 5.0 8 1272
+ 0.041985 0 4 ack 40 ------- 0 3.176 4.55 0 1129
+ 0.042503 0 4 ack 40 ------- 0 17.970 13.1325 0 1251
r 0.042884 0 4 tcp 1540 ------- 0 0.1125 14.358 2 1181
r 0.042916 0 4 tcp 40 ------- 0 10.114 4.380 0 1070
r 0.042948 0 4 ack 40 ------- 0 19.885 5.1517 0 917
r 0.04298 0 4 ack 40 ------- 0 17.953 13.1308 0 1178
+ 0.042983 0 4 tcp 1540 ------- 0 1.1703 15.686 2 959
- 0.042983 0 4 ack 40 ------- 0 0.152 5.0 8 1272
r 0.043012 0 4 tcp 40 ------- 0 0.1051 13.421 0 1243
- 0.043015 0 4 ack 40 ------- 0 3.176 4.55 0 1129
+ 0.043034 0 4 ack 40 ------- 0 0.152 5.0 9 1311
r 0.043044 0 4 ack 40 ------- 0 0.152 5.0 7 1245
- 0.043047 0 4 ack 40 ------- 0 17.970 13.1325 0 1251
- 0.043079 0 4 tcp 1540 ------- 0 1.1703 15.686 2 959
+ 0.043515 0 4 tcp 1540 ------- 0 2.1067 15.785 1 1158
+ 0.043954 0 4 ack 40 ------- 0 17.1015 13.1370 0 1283
+ 0.044266 0 4 ack 40 ------- 0 0.152 5.0 10 1339
+ 0.044298 0 4 tcp 1540 ------- 0 0.1114 14.347 1 1340
+ 0.044298 0 4 tcp 1540 ------- 0 0.1114 14.347 2 1341
- 0.044311 0 4 ack 40 ------- 0 0.152 5.0 9 1311
- 0.044343 0 4 tcp 1540 ------- 0 2.1067 15.785 1 1158
+ 0.044747 0 4 tcp 1540 ------- 0 2.1067 15.785 2 1159
+ 0.045142 0 4 tcp 40 ------- 0 0.994 13.364 0 1367
r 0.045437 0 4 tcp 1540 ------- 0 1.1703 15.686 1 958
r 0.045469 0 4 ack 40 ------- 0 0.152 5.0 8 1272
+ 0.045479 0 4 ack 40 ------- 0 1.563 12.47 0 964
r 0.045501 0 4 ack 40 ------- 0 3.176 4.55 0 1129
+ 0.04553 0 4 ack 40 ------- 0 0.152 5.0 11 1379
r 0.045533 0 4 ack 40 ------- 0 17.970 13.1325 0 1251
- 0.045575 0 4 ack 40 ------- 0 17.1015 13.1370 0 1283
- 0.045607 0 4 ack 40 ------- 0 0.152 5.0 10 1339
- 0.045639 0 4 tcp 1540 ------- 0 0.1114 14.347 1 1340
+ 0.046187 0 4 ack 40 ------- 0 19.808 4.1158 0 1068
+ 0.046711 0 4 tcp 1540 ------- 0 1.1141 4.134 3 991
r 0.046765 0 4 tcp 1540 ------- 0 1.1703 15.686 2 959
+ 0.046794 0 4 ack 40 ------- 0 0.152 5.0 12 1397
r 0.046797 0 4 ack 40 ------- 0 0.152 5.0 9 1311
- 0.046871 0 4 tcp 1540 ------- 0 0.1114 14.347 2 1341
+ 0.047943 0 4 tcp 1540 ------- 0 1.1141 4.134 4 992
+ 0.048026 0 4 ack 40 ------- 0 0.152 5.0 13 1431
r 0.048029 0 4 tcp 1540 ------- 0 2.1067 15.785 1 1158
r 0.048061 0 4 ack 40 ------- 0 17.1015 13.1370 0 1283
r 0.048093 0 4 ack 40 ------- 0 0.152 5.0 10 1339
- 0.048103 0 4 tcp 1540 ------- 0 2.1067 15.785 2 1159
+ 0.04832 0 4 ack 40 ------- 0 19.867 5.1499 0 1120
+ 0.048868 0 4 tcp 40 ------- 0 17.1402 25.498 0 1407
d 0.048868 0 4 tcp 40 ------- 0 17.1402 25.498 0 1407
+ 0.049258 0 4 ack 40 ------- 0 0.152 5.0 14 1462
d 0.049258 0 4 ack 40 ------- 0 0.152 5.0 14 1462
r 0.049325 0 4 tcp 1540 ------- 0 0.1114 14.347 1 1340
- 0.049335 0 4 tcp 40 ------- 0 0.994 13.364 0 1367
+ 0.049367 0 4 tcp 40 ------- 0 0.1104 14.337 0 1468
- 0.049367 0 4 ack 40 ------- 0 1.563 12.47 0 964
- 0.049399 0 4 ack 40 ------- 0 0.152 5.0 11 1379
- 0.049431 0 4 ack 40 ------- 0 19.808 4.1158 0 1068
- 0.049463 0 4 tcp 1540 ------- 0 1.1141 4.134 3 991
+ 0.050453 0 4 tcp 40 ------- 0 19.354 12.799 0 1356
r 0.050557 0 4 tcp 1540 ------- 0 0.1114 14.347 2 1341
- 0.050695 0 4 ack 40 ------- 0 0.152 5.0 12 1397
- 0.050727 0 4 tcp 1540 ------- 0 1.1141 4.134 4 992
+ 0.051105 0 4 tcp 40 ------- 0 0.1301 20.674 0 1513
r 0.051789 0 4 tcp 1540 ------- 0 2.1067 15.785 2 1159
r 0.051821 0 4 tcp 40 ------- 0 0.994 13.364 0 1367
r 0.051853 0 4 ack 40 ------- 0 1.563 12.47 0 964
r 0.051885 0 4 ack 40 ------- 0 0.152 5.0 11 1379
r 0.051917 0 4 ack 40 ------- 0 19.808 4.1158 0 1068
- 0.051959 0 4 ack 40 ------- 0 0.152 5.0 13 1431
- 0.051991 0 4 ack 40 ------- 0 19.867 5.1499 0 1120
- 0.052023 0 4 tcp 40 ------- 0 0.1104 14.337 0 1468
- 0.052055 0 4 tcp 40 ------- 0 19.354 12.799 0 1356
- 0.052087 0 4 tcp 40 ------- 0 0.1301 20.674 0 1513
+ 0.052587 0 4 tcp 40 ------- 0 19.184 5.900 0 1401
- 0.052587 0 4 tcp 40 ------- 0 19.184 5.900 0 1401
r 0.053149 0 4 tcp 1540 ------- 0 1.1141 4.134 3 991
r 0.053181 0 4 ack 40 ------- 0 0.152 5.0 12 1397
+ 0.054103 0 4 tcp 1540 ------- 0 1.1141 4.134 5 1030
- 0.054103 0 4 tcp 1540 ------- 0 1.1141 4.134 5 1030
r 0.054413 0 4 tcp 1540 ------- 0 1.1141 4.134 4 992
r 0.054445 0 4 ack 40 ------- 0 0.152 5.0 13 1431
r 0.054477 0 4 ack 40 ------- 0 19.867 5.1499 0 1120
r 0.054509 0 4 tcp 40 ------- 0 0.1104 14.337 0 1468
r 0.054541 0 4 tcp 40 ------- 0 19.354 12.799 0 1356
r 0.054573 0 4 tcp 40 ------- 0 0.1301 20.674 0 1513
r 0.055073 0 4 tcp 40 ------- 0 19.184 5.900 0 1401
+ 0.055335 0 4 tcp 1540 ------- 0 1.1141 4.134 6 1031
- 0.055335 0 4 tcp 1540 ------- 0 1.1141 4.134 6 1031
+ 0.055367 0 4 tcp 40 ------- 0 1.1582 15.565 0 1032
- 0.056567 0 4 tcp 40 ------- 0 1.1582 15.565 0 1032
r 0.057789 0 4 tcp 1540 ------- 0 1.1141 4.134 5 1030
+ 0.057863 0 4 ack 40 ------- 0 1.601 15.63 0 1060
- 0.057863 0 4 ack 40 ------- 0 1.601 15.63 0 1060
+ 0.058042 0 4 ack 40 ------- 0 0.152 5.0 15 1703
- 0.058042 0 4 ack 40 ------- 0 0.152 5.0 15 1703
+ 0.058363 0 4 tcp 1540 ------- 0 10.112 4.378 3 1275
- 0.058363 0 4 tcp 1540 ------- 0 10.112 4.378 3 1275
r 0.059021 0 4 tcp 1540 ------- 0 1.1141 4.134 6 1031
r 0.059053 0 4 tcp 40 ------- 0 1.1582 15.565 0 1032
+ 0.059595 0 4 tcp 1540 ------- 0 10.112 4.378 4 1276
- 0.059595 0 4 tcp 1540 ------- 0 10.112 4.378 4 1276
+ 0.059689 0 4 ack 40 ------- 0 21.605 4.1266 0 1215
+ 0.059753 0 4 ack 40 ------- 0 21.637 4.1298 0 1361
+ 0.05997 0 4 tcp 1540 ------- 0 17.187 5.828 1 1579
+ 0.060289 0 4 tcp 40 ------- 0 19.379 15.1133 0 1652
r 0.060349 0 4 ack 40 ------- 0 1.601 15.63 0 1060
r 0.060528 0 4 ack 40 ------- 0 0.152 5.0 15 1703
+ 0.06057 0 4 tcp 1540 ------- 0 0.1096 14.329 1 1769
+ 0.06057 0 4 tcp 1540 ------- 0 0.1096 14.329 2 1770
- 0.060827 0 4 ack 40 ------- 0 21.605 4.1266 0 1215
- 0.060859 0 4 ack 40 ------- 0 21.637 4.1298 0 1361
- 0.060891 0 4 tcp 1540 ------- 0 17.187 5.828 1 1579
+ 0.061765 0 4 tcp 40 ------- 0 0.1086 13.456 0 1800
+ 0.061834 0 4 ack 40 ------- 0 0.152 5.0 16 1804
r 0.06205 0 4 tcp 1540 ------- 0 10.112 4.378 3 1275
- 0.062123 0 4 tcp 40 ------- 0 19.379 15.1133 0 1652
- 0.062155 0 4 tcp 1540 ------- 0 0.1096 14.329 1 1769
+ 0.063162 0 4 ack 40 ------- 0 0.152 5.0 17 1840
r 0.063282 0 4 tcp 1540 ------- 0 10.112 4.378 4 1276
r 0.063314 0 4 ack 40 ------- 0 21.605 4.1266 0 1215
r 0.063346 0 4 ack 40 ------- 0 21.637 4.1298 0 1361
- 0.063387 0 4 tcp 1540 ------- 0 0.1096 14.329 2 1770
+ 0.064055 0 4 tcp 1540 ------- 0 16.158 4.593 1 932
+ 0.064369 0 4 ack 40 ------- 0 3.176 4.55 1 1702
+ 0.064426 0 4 ack 40 ------- 0 0.152 5.0 18 1876
r 0.064578 0 4 tcp 1540 ------- 0 17.187 5.828 1 1579
r 0.06461 0 4 tcp 40 ------- 0 19.379 15.1133 0 1652
- 0.064619 0 4 tcp 40 ------- 0 0.1086 13.456 0 1800
- 0.064651 0 4 ack 40 ------- 0 0.152 5.0 16 1804
- 0.064683 0 4 ack 40 ------- 0 0.152 5.0 17 1840
- 0.064715 0 4 tcp 1540 ------- 0 16.158 4.593 1 932
+ 0.064898 0 4 tcp 1540 ------- 0 17.187 5.828 2 1580
+ 0.065026 0 4 ack 40 ------- 0 17.819 12.988 0 1644
+ 0.065601 0 4 ack 40 ------- 0 3.176 4.55 2 1735
+ 0.065658 0 4 ack 40 ------- 0 0.152 5.0 19 1914
r 0.065842 0 4 tcp 1540 ------- 0 0.1096 14.329 1 1769
- 0.065947 0 4 ack 40 ------- 0 3.176 4.55 1 1702
- 0.065979 0 4 ack 40 ------- 0 0.152 5.0 18 1876
- 0.066011 0 4 tcp 1540 ------- 0 17.187 5.828 2 1580
+ 0.066199 0 4 tcp 40 ------- 0 19.429 15.1183 0 1823
+ 0.066551 0 4 tcp 40 ------- 0 1.1299 12.310 0 1157
+ 0.066954 0 4 ack 40 ------- 0 0.152 5.0 20 1935
r 0.067074 0 4 tcp 1540 ------- 0 0.1096 14.329 2 1770
r 0.067106 0 4 tcp 40 ------- 0 0.1086 13.456 0 1800
r 0.067138 0 4 ack 40 ------- 0 0.152 5.0 16 1804
r 0.06717 0 4 ack 40 ------- 0 0.152 5.0 17 1840
- 0.067243 0 4 ack 40 ------- 0 17.819 12.988 0 1644
- 0.067275 0 4 ack 40 ------- 0 3.176 4.55 2 1735
- 0.067307 0 4 ack 40 ------- 0 0.152 5.0 19 1914
- 0.067339 0 4 tcp 40 ------- 0 19.429 15.1183 0 1823
- 0.067371 0 4 tcp 40 ------- 0 1.1299 12.310 0 1157
- 0.067403 0 4 ack 40 ------- 0 0.152 5.0 20 1935
+ 0.068219 0 4 tcp 1540 ------- 0 10.112 4.378 5 1312
- 0.068219 0 4 tcp 1540 ------- 0 10.112 4.378 5 1312
+ 0.06825 0 4 ack 40 ------- 0 0.152 5.0 21 1980
r 0.068402 0 4 tcp 1540 ------- 0 16.158 4.593 1 932
r 0.068434 0 4 ack 40 ------- 0 3.176 4.55 1 1702
r 0.068466 0 4 ack 40 ------- 0 0.152 5.0 18 1876
+ 0.069047 0 4 tcp 40 ------- 0 1.1355 12.366 0 1173
- 0.069451 0 4 ack 40 ------- 0 0.152 5.0 21 1980
- 0.069483 0 4 tcp 40 ------- 0 1.1355 12.366 0 1173
+ 0.069514 0 4 ack 40 ------- 0 0.152 5.0 22 2029
- 0.069515 0 4 ack 40 ------- 0 0.152 5.0 22 2029
r 0.069698 0 4 tcp 1540 ------- 0 17.187 5.828 2 1580
r 0.06973 0 4 ack 40 ------- 0 17.819 12.988 0 1644
r 0.069762 0 4 ack 40 ------- 0 3.176 4.55 2 1735
r 0.069794 0 4 ack 40 ------- 0 0.152 5.0 19 1914
r 0.069826 0 4 tcp 40 ------- 0 19.429 15.1183 0 1823
r 0.069858 0 4 tcp 40 ------- 0 1.1299 12.310 0 1157
r 0.06989 0 4 ack 40 ------- 0 0.152 5.0 20 1935
+ 0.070906 0 4 ack 40 ------- 0 0.152 5.0 23 2071
- 0.070906 0 4 ack 40 ------- 0 0.152 5.0 23 2071
r 0.071906 0 4 tcp 1540 ------- 0 10.112 4.378 5 1312
+ 0.071915 0 4 tcp 1540 ------- 0 10.112 4.378 6 1313
- 0.071915 0 4 tcp 1540 ------- 0 10.112 4.378 6 1313
r 0.071938 0 4 ack 40 ------- 0 0.152 5.0 21 1980
r 0.07197 0 4 tcp 40 ------- 0 1.1355 12.366 0 1173
r 0.072002 0 4 ack 40 ------- 0 0.152 5.0 22 2029
+ 0.072202 0 4 ack 40 ------- 0 0.152 5.0 24 2133
+ 0.072775 0 4 tcp 40 ------- 0 1.1381 13.477 0 1214
- 0.073147 0 4 ack 40 ------- 0 0.152 5.0 24 2133
- 0.073179 0 4 tcp 40 ------- 0 1.1381 13.477 0 1214
r 0.073392 0 4 ack 40 ------- 0 0.152 5.0 23 2071
+ 0.075239 0 4 tcp 1540 ------- 0 16.158 4.593 2 933
- 0.075239 0 4 tcp 1540 ------- 0 16.158 4.593 2 933
+ 0.075266 0 4 ack 40 ------- 0 17.999 13.1354 0 1820
+ 0.075394 0 4 ack 40 ------- 0 17.1079 14.1363 0 1824
r 0.075602 0 4 tcp 1540 ------- 0 10.112 4.378 6 1313
r 0.075634 0 4 ack 40 ------- 0 0.152 5.0 24 2133
r 0.075666 0 4 tcp 40 ------- 0 1.1381 13.477 0 1214
- 0.076471 0 4 ack 40 ------- 0 17.999 13.1354 0 1820
- 0.076503 0 4 ack 40 ------- 0 17.1079 14.1363 0 1824
+ 0.076599 0 4 tcp 40 ------- 0 1.1318 12.329 0 1274
- 0.076599 0 4 tcp 40 ------- 0 1.1318 12.329 0 1274
+ 0.076631 0 4 tcp 40 ------- 0 1.1201 4.194 0 1277
- 0.076631 0 4 tcp 40 ------- 0 1.1201 4.194 0 1277
+ 0.076663 0 4 ack 40 ------- 0 16.694 14.1305 0 1204
- 0.076663 0 4 ack 40 ------- 0 16.694 14.1305 0 1204
+ 0.076907 0 4 tcp 40 ------- 0 9.251 4.331 0 1416
- 0.076907 0 4 tcp 40 ------- 0 9.251 4.331 0 1416
+ 0.07757 0 4 tcp 40 ------- 0 0.1324 20.697 0 2305
- 0.07757 0 4 tcp 40 ------- 0 0.1324 20.697 0 2305
+ 0.077621 0 4 ack 40 ------- 0 21.652 4.1313 0 1976
- 0.077621 0 4 ack 40 ------- 0 21.652 4.1313 0 1976
+ 0.078426 0 4 ack 40 ------- 0 0.152 5.0 25 2337
- 0.078426 0 4 ack 40 ------- 0 0.152 5.0 25 2337
r 0.078925 0 4 tcp 1540 ------- 0 16.158 4.593 2 933
r 0.078957 0 4 ack 40 ------- 0 17.999 13.1354 0 1820
r 0.078989 0 4 ack 40 ------- 0 17.1079 14.1363 0 1824
r 0.079085 0 4 tcp 40 ------- 0 1.1318 12.329 0 1274
r 0.079117 0 4 tcp 40 ------- 0 1.1201 4.194 0 1277
r 0.079149 0 4 ack 40 ------- 0 16.694 14.1305 0 1204
r 0.079394 0 4 tcp 40 ------- 0 9.251 4.331 0 1416
+ 0.07962 0 4 tcp 40 ------- 0 3.736 4.241 0 2163
- 0.07962 0 4 tcp 40 ------- 0 3.736 4.241 0 2163
+ 0.079658 0 4 ack 40 ------- 0 0.152 5.0 26 2382
- 0.079658 0 4 ack 40 ------- 0 0.152 5.0 26 2382
r 0.080057 0 4 tcp 40 ------- 0 0.1324 20.697 0 2305
r 0.080108 0 4 ack 40 ------- 0 21.652 4.1313 0 1976
+ 0.080322 0 4 tcp 1540 ------- 0 18.269 15.1098 1 1772
- 0.080322 0 4 tcp 1540 ------- 0 18.269 15.1098 1 1772
+ 0.080578 0 4 tcp 40 ------- 0 17.340 12.707 0 2012
+ 0.080603 0 4 tcp 1540 ------- 0 10.114 4.380 1 1504
r 0.080912 0 4 ack 40 ------- 0 0.152 5.0 25 2337
+ 0.080954 0 4 ack 40 ------- 0 0.152 5.0 27 2429
- 0.081554 0 4 tcp 40 ------- 0 17.340 12.707 0 2012
- 0.081586 0 4 tcp 1540 ------- 0 10.114 4.380 1 1504
+ 0.081937 0 4 tcp 40 ------- 0 0.735 4.96 0 2455
r 0.082106 0 4 tcp 40 ------- 0 3.736 4.241 0 2163
r 0.082144 0 4 ack 40 ------- 0 0.152 5.0 26 2382
+ 0.082186 0 4 ack 40 ------- 0 0.152 5.0 28 2470
- 0.082818 0 4 ack 40 ------- 0 0.152 5.0 27 2429
- 0.08285 0 4 tcp 40 ------- 0 0.735 4.96 0 2455
- 0.082882 0 4 ack 40 ------- 0 0.152 5.0 28 2470
+ 0.083941 0 4 ack 40 ------- 0 3.178 4.57 0 2302
- 0.083941 0 4 ack 40 ------- 0 3.178 4.57 0 2302
r 0.084008 0 4 tcp 1540 ------- 0 18.269 15.1098 1 1772
r 0.08404 0 4 tcp 40 ------- 0 17.340 12.707 0 2012
+ 0.084136 0 4 tcp 40 ------- 0 19.1290 25.551 0 2358
- 0.084136 0 4 tcp 40 ------- 0 19.1290 25.551 0 2358
+ 0.084299 0 4 tcp 1540 ------- 0 10.114 4.380 2 1505
- 0.084299 0 4 tcp 1540 ------- 0 10.114 4.380 2 1505
r 0.085272 0 4 tcp 1540 ------- 0 10.114 4.380 1 1504
r 0.085304 0 4 ack 40 ------- 0 0.152 5.0 27 2429
r 0.085336 0 4 tcp 40 ------- 0 0.735 4.96 0 2455
r 0.085368 0 4 ack 40 ------- 0 0.152 5.0 28 2470
+ 0.085506 0 4 tcp 1540 ------- 0 18.269 15.1098 2 1773
- 0.085531 0 4 tcp 1540 ------- 0 18.269 15.1098 2 1773
+ 0.085634 0 4 tcp 40 ------- 0 17.1412 25.508 0 2351
r 0.086428 0 4 ack 40 ------- 0 3.178 4.57 0 2302
r 0.086622 0 4 tcp 40 ------- 0 19.1290 25.551 0 2358
- 0.086763 0 4 tcp 40 ------- 0 17.1412 25.508 0 2351
r 0.087986 0 4 tcp 1540 ------- 0 10.114 4.380 2 1505
r 0.089218 0 4 tcp 1540 ------- 0 18.269 15.1098 2 1773
r 0.08925 0 4 tcp 40 ------- 0 17.1412 25.508 0 2351
+ 0.089259 0 4 tcp 1540 ------- 0 2.989 15.707 1 1707
- 0.089259 0 4 tcp 1540 ------- 0 2.989 15.707 1 1707
+ 0.089623 0 4 tcp 40 ------- 0 19.420 15.1174 0 2585
+ 0.090491 0 4 tcp 1540 ------- 0 2.989 15.707 2 1708
- 0.090491 0 4 tcp 40 ------- 0 19.420 15.1174 0 2585
- 0.090523 0 4 tcp 1540 ------- 0 2.989 15.707 2 1708
+ 0.090562 0 4 tcp 1540 ------- 0 17.365 12.732 1 2442
+ 0.091723 0 4 tcp 1540 ------- 0 2.1044 15.762 1 1711
- 0.091755 0 4 tcp 1540 ------- 0 17.365 12.732 1 2442
+ 0.091756 0 4 tcp 40 ------- 0 19.373 15.1127 0 2621
r 0.092946 0 4 tcp 1540 ------- 0 2.989 15.707 1 1707
+ 0.092955 0 4 tcp 1540 ------- 0 2.1044 15.762 2 1712
r 0.092978 0 4 tcp 40 ------- 0 19.420 15.1174 0 2585
- 0.092987 0 4 tcp 1540 ------- 0 2.1044 15.762 1 1711
+ 0.09337 0 4 ack 40 ------- 0 0.152 5.0 29 2835
r 0.09421 0 4 tcp 1540 ------- 0 2.989 15.707 2 1708
- 0.094219 0 4 tcp 40 ------- 0 19.373 15.1127 0 2621
- 0.094251 0 4 tcp 1540 ------- 0 2.1044 15.762 2 1712
+ 0.094634 0 4 ack 40 ------- 0 0.152 5.0 30 2864
r 0.095442 0 4 tcp 1540 ------- 0 17.365 12.732 1 2442
+ 0.095451 0 4 tcp 40 ------- 0 2.998 15.716 0 1720
- 0.095483 0 4 ack 40 ------- 0 0.152 5.0 29 2835
+ 0.09549 0 4 tcp 1540 ------- 0 17.365 12.732 2 2443
- 0.095515 0 4 ack 40 ------- 0 0.152 5.0 30 2864
- 0.095547 0 4 tcp 40 ------- 0 2.998 15.716 0 1720
- 0.095579 0 4 tcp 1540 ------- 0 17.365 12.732 2 2443
+ 0.095618 0 4 ack 40 ------- 0 17.1131 15.1282 0 2446
+ 0.095746 0 4 tcp 40 ------- 0 17.1337 20.1185 0 2775
+ 0.095898 0 4 ack 40 ------- 0 0.152 5.0 31 2902
+ 0.095972 0 4 tcp 40 ------- 0 0.1062 13.432 0 2904
r 0.096674 0 4 tcp 1540 ------- 0 2.1044 15.762 1 1711
r 0.096706 0 4 tcp 40 ------- 0 19.373 15.1127 0 2621
- 0.096811 0 4 ack 40 ------- 0 17.1131 15.1282 0 2446
- 0.096843 0 4 tcp 40 ------- 0 17.1337 20.1185 0 2775
- 0.096875 0 4 ack 40 ------- 0 0.152 5.0 31 2902
- 0.096907 0 4 tcp 40 ------- 0 0.1062 13.432 0 2904
r 0.097938 0 4 tcp 1540 ------- 0 2.1044 15.762 2 1712
r 0.09797 0 4 ack 40 ------- 0 0.152 5.0 29 2835
r 0.098002 0 4 ack 40 ------- 0 0.152 5.0 30 2864
r 0.098034 0 4 tcp 40 ------- 0 2.998 15.716 0 1720
+ 0.098134 0 4 tcp 40 ------- 0 17.317 12.684 0 2917
- 0.098134 0 4 tcp 40 ------- 0 17.317 12.684 0 2917
+ 0.098458 0 4 ack 40 ------- 0 0.152 5.0 32 2999
- 0.098458 0 4 ack 40 ------- 0 0.152 5.0 32 2999
+ 0.098935 0 4 tcp 1540 ------- 0 1.1141 4.134 7 1869
- 0.098935 0 4 tcp 1540 ------- 0 1.1141 4.134 7 1869
r 0.099266 0 4 tcp 1540 ------- 0 17.365 12.732 2 2443
r 0.099298 0 4 ack 40 ------- 0 17.1131 15.1282 0 2446
r 0.09933 0 4 tcp 40 ------- 0 17.1337 20.1185 0 2775
r 0.099362 0 4 ack 40 ------- 0 0.152 5.0 31 2902
r 0.099394 0 4 tcp 40 ------- 0 0.1062 13.432 0 2904
+ 0.100167 0 4 tcp 1540 ------- 0 1.1141 4.134 8 1870
- 0.100167 0 4 tcp 1540 ------- 0 1.1141 4.134 8 1870
+ 0.100398 0 4 ack 40 ------- 0 3.176 4.55 3 2845
r 0.100621 0 4 tcp 40 ------- 0 17.317 12.684 0 2917
+ 0.100922 0 4 ack 40 ------- 0 0.152 5.0 33 3086
r 0.100944 0 4 ack 40 ------- 0 0.152 5.0 32 2999
- 0.101399 0 4 ack 40 ------- 0 3.176 4.55 3 2845
- 0.101431 0 4 ack 40 ------- 0 0.152 5.0 33 3086
+ 0.101739 0 4 tcp 40 ------- 0 10.137 4.403 0 1685
- 0.101739 0 4 tcp 40 ------- 0 10.137 4.403 0 1685
+ 0.101835 0 4 ack 40 ------- 0 10.388 5.1151 1 1775
- 0.101835 0 4 ack 40 ------- 0 10.388 5.1151 1 1775
+ 0.102154 0 4 ack 40 ------- 0 0.152 5.0 34 3129
- 0.102154 0 4 ack 40 ------- 0 0.152 5.0 34 3129
+ 0.10225 0 4 tcp 1540 ------- 0 0.1125 14.358 3 3131
- 0.10225 0 4 tcp 1540 ------- 0 0.1125 14.358 3 3131
+ 0.10225 0 4 tcp 1540 ------- 0 0.1125 14.358 4 3132
+ 0.102314 0 4 tcp 1540 ------- 0 0.1018 13.388 1 3133
+ 0.102314 0 4 tcp 1540 ------- 0 0.1018 13.388 2 3134
+ 0.102346 0 4 tcp 1540 ------- 0 0.1125 14.358 5 3137
+ 0.102346 0 4 tcp 1540 ------- 0 0.1125 14.358 6 3138
+ 0.102378 0 4 tcp 1540 ------- 0 0.1114 14.347 3 3139
+ 0.102378 0 4 tcp 1540 ------- 0 0.1114 14.347 4 3140
+ 0.102442 0 4 tcp 1540 ------- 0 0.1114 14.347 5 3143
+ 0.102442 0 4 tcp 1540 ------- 0 0.1114 14.347 6 3144
r 0.102621 0 4 tcp 1540 ------- 0 1.1141 4.134 7 1869
+ 0.102631 0 4 tcp 1540 ------- 0 1.1141 4.134 9 1906
d 0.102631 0 4 tcp 1540 ------- 0 1.1141 4.134 9 1906
- 0.103482 0 4 tcp 1540 ------- 0 0.1125 14.358 4 3132
+ 0.103738 0 4 ack 40 ------- 0 0.152 5.0 35 3180
r 0.103853 0 4 tcp 1540 ------- 0 1.1141 4.134 8 1870
+ 0.103863 0 4 tcp 1540 ------- 0 1.1141 4.134 10 1907
d 0.103863 0 4 tcp 1540 ------- 0 1.1141 4.134 10 1907
r 0.103885 0 4 ack 40 ------- 0 3.176 4.55 3 2845
r 0.103917 0 4 ack 40 ------- 0 0.152 5.0 33 3086
+ 0.104094 0 4 ack 40 ------- 0 3.176 4.55 4 2966
d 0.104094 0 4 ack 40 ------- 0 3.176 4.55 4 2966
+ 0.104146 0 4 tcp 1540 ------- 0 17.187 5.828 3 2956
d 0.104146 0 4 tcp 1540 ------- 0 17.187 5.828 3 2956
r 0.104226 0 4 tcp 40 ------- 0 10.137 4.403 0 1685
r 0.104322 0 4 ack 40 ------- 0 10.388 5.1151 1 1775
+ 0.104331 0 4 ack 40 ------- 0 10.388 5.1151 2 1816
d 0.104331 0 4 ack 40 ------- 0 10.388 5.1151 2 1816
r 0.10464 0 4 ack 40 ------- 0 0.152 5.0 34 3129
- 0.104714 0 4 tcp 1540 ------- 0 0.1018 13.388 1 3133
r 0.105936 0 4 tcp 1540 ------- 0 0.1125 14.358 3 3131
- 0.105946 0 4 tcp 1540 ------- 0 0.1018 13.388 2 3134
+ 0.106298 0 4 ack 40 ------- 0 0.287 12.25 0 3270
r 0.107168 0 4 tcp 1540 ------- 0 0.1125 14.358 4 3132
- 0.107178 0 4 tcp 1540 ------- 0 0.1125 14.358 5 3137
+ 0.10753 0 4 ack 40 ------- 0 0.152 5.0 36 3304
+ 0.107559 0 4 tcp 1540 ------- 0 1.1703 15.686 3 1966
+ 0.108027 0 4 tcp 1540 ------- 0 2.1067 15.785 3 2088
d 0.108027 0 4 tcp 1540 ------- 0 2.1067 15.785 3 2088
r 0.1084 0 4 tcp 1540 ------- 0 0.1018 13.388 1 3133
- 0.10841 0 4 tcp 1540 ------- 0 0.1125 14.358 6 3138
+ 0.108762 0 4 ack 40 ------- 0 0.152 5.0 37 3341
+ 0.108791 0 4 tcp 1540 ------- 0 1.1703 15.686 4 1967
d 0.108791 0 4 tcp 1540 ------- 0 1.1703 15.686 4 1967
+ 0.10889 0 4 ack 40 ------- 0 0.143 4.8 0 3345
d 0.10889 0 4 ack 40 ------- 0 0.143 4.8 0 3345
+ 0.109074 0 4 tcp 1540 ------- 0 17.187 5.828 4 2957
d 0.109074 0 4 tcp 1540 ------- 0 17.187 5.828 4 2957
+ 0.109202 0 4 tcp 40 ------- 0 17.374 12.741 0 3121
d 0.109202 0 4 tcp 40 ------- 0 17.374 12.741 0 3121
+ 0.109259 0 4 tcp 1540 ------- 0 2.1067 15.785 4 2089
d 0.109259 0 4 tcp 1540 ------- 0 2.1067 15.785 4 2089
+ 0.10933 0 4 ack 40 ------- 0 17.904 13.1259 0 3192
d 0.10933 0 4 ack 40 ------- 0 17.904 13.1259 0 3192
+ 0.109458 0 4 ack 40 ------- 0 17.964 13.1319 0 3197
d 0.109458 0 4 ack 40 ------- 0 17.964 13.1319 0 3197
+ 0.109586 0 4 ack 40 ------- 0 17.812 12.981 0 3202
d 0.109586 0 4 ack 40 ------- 0 17.812 12.981 0 3202
r 0.109632 0 4 tcp 1540 ------- 0 0.1018 13.388 2 3134
- 0.109642 0 4 tcp 1540 ------- 0 0.1114 14.347 3 3139
+ 0.110023 0 4 tcp 1540 ------- 0 1.1141 4.134 11 1968
+ 0.110122 0 4 ack 40 ------- 0 0.152 5.0 38 3380
d 0.110122 0 4 ack 40 ------- 0 0.152 5.0 38 3380
+ 0.110523 0 4 ack 40 ------- 0 2.148 5.39 0 2144
d 0.110523 0 4 ack 40 ------- 0 2.148 5.39 0 2144
+ 0.110555 0 4 ack 40 ------- 0 10.382 5.1145 0 1957
d 0.110555 0 4 ack 40 ------- 0 10.382 5.1145 0 1957
+ 0.110587 0 4 ack 40 ------- 0 10.285 4.910 0 1958
d 0.110587 0 4 ack 40 ------- 0 10.285 4.910 0 1958
r 0.110864 0 4 tcp 1540 ------- 0 0.1125 14.358 5 3137
- 0.110874 0 4 tcp 1540 ------- 0 0.1114 14.347 4 3140
+ 0.111255 0 4 tcp 1540 ------- 0 1.1141 4.134 12 1969
+ 0.111354 0 4 ack 40 ------- 0 0.152 5.0 39 3428
d 0.111354 0 4 ack 40 ------- 0 0.152 5.0 39 3428
+ 0.111418 0 4 tcp 1540 ------- 0 0.735 4.96 1 3429
d 0.111418 0 4 tcp 1540 ------- 0 0.735 4.96 1 3429
+ 0.111418 0 4 tcp 1540 ------- 0 0.735 4.96 2 3430
d 0.111418 0 4 tcp 1540 ------- 0 0.735 4.96 2 3430
+ 0.111851 0 4 ack 40 ------- 0 2.462 14.49 0 2187
d 0.111851 0 4 ack 40 ------- 0 2.462 14.49 0 2187
r 0.112096 0 4 tcp 1540 ------- 0 0.1125 14.358 6 3138
- 0.112106 0 4 tcp 1540 ------- 0 0.1114 14.347 5 3143
+ 0.11222 0 4 tcp 40 ------- 0 0.1073 13.443 0 3456
+ 0.11265 0 4 ack 40 ------- 0 0.152 5.0 40 3469
d 0.11265 0 4 ack 40 ------- 0 0.152 5.0 40 3469
+ 0.113115 0 4 tcp 1540 ------- 0 2.1067 15.785 5 2222
d 0.113115 0 4 tcp 1540 ------- 0 2.1067 15.785 5 2222
r 0.113328 0 4 tcp 1540 ------- 0 0.1114 14.347 3 3139
- 0.113338 0 4 tcp 1540 ------- 0 0.1114 14.347 6 3144
+ 0.113605 0 4 ack 40 ------- 0 3.176 4.55 5 3273
+ 0.11374 0 4 tcp 1540 ------- 0 1.1141 4.134 13 2021
d 0.11374 0 4 tcp 1540 ------- 0 1.1141 4.134 13 2021
+ 0.11395 0 4 ack 40 ------- 0 3.176 4.55 6 3306
d 0.11395 0 4 ack 40 ------- 0 3.176 4.55 6 3306
+ 0.114347 0 4 tcp 1540 ------- 0 2.1067 15.785 6 2223
d 0.114347 0 4 tcp 1540 ------- 0 2.1067 15.785 6 2223
r 0.11456 0 4 tcp 1540 ------- 0 0.1114 14.347 4 3140
- 0.11457 0 4 ack 40 ------- 0 0.152 5.0 35 3180
- 0.114602 0 4 ack 40 ------- 0 0.287 12.25 0 3270
- 0.114634 0 4 ack 40 ------- 0 0.152 5.0 36 3304
- 0.114666 0 4 tcp 1540 ------- 0 1.1703 15.686 3 1966
+ 0.114972 0 4 tcp 1540 ------- 0 1.1141 4.134 14 2022
r 0.115792 0 4 tcp 1540 ------- 0 0.1114 14.347 5 3143
- 0.115898 0 4 ack 40 ------- 0 0.152 5.0 37 3341
- 0.11593 0 4 tcp 1540 ------- 0 1.1141 4.134 11 1968
+ 0.116346 0 4 ack 40 ------- 0 0.152 5.0 41 3564
r 0.117024 0 4 tcp 1540 ------- 0 0.1114 14.347 6 3144
r 0.117056 0 4 ack 40 ------- 0 0.152 5.0 35 3180
r 0.117088 0 4 ack 40 ------- 0 0.287 12.25 0 3270
r 0.11712 0 4 ack 40 ------- 0 0.152 5.0 36 3304
- 0.117162 0 4 tcp 1540 ------- 0 1.1141 4.134 12 1969
+ 0.11761 0 4 ack 40 ------- 0 0.152 5.0 42 3594
+ 0.117642 0 4 tcp 1540 ------- 0 0.1301 20.674 1 3596
+ 0.117642 0 4 tcp 1540 ------- 0 0.1301 20.674 2 3597
r 0.118352 0 4 tcp 1540 ------- 0 1.1703 15.686 3 1966
r 0.118384 0 4 ack 40 ------- 0 0.152 5.0 37 3341
- 0.118394 0 4 tcp 40 ------- 0 0.1073 13.443 0 3456
- 0.118426 0 4 ack 40 ------- 0 3.176 4.55 5 3273