+ 0.002249 1 6 rtProtoDV 26 ------- 0 1.2013 6.1492 -1 24
- 0.002249 1 6 rtProtoDV 26 ------- 0 1.2013 6.1492 -1 24
+ 0.005575 1 6 rtProtoDV 26 ------- 0 1.2013 6.1492 -1 102
- 0.005575 1 6 rtProtoDV 26 ------- 0 1.2013 6.1492 -1 102
+ 0.0072 1 6 rtProtoDV 26 ------- 0 1.2013 6.1492 -1 160
- 0.0072 1 6 rtProtoDV 26 ------- 0 1.2013 6.1492 -1 160
+ 0.007769 1 6 rtProtoDV 26 ------- 0 1.2013 6.1492 -1 190
- 0.007769 1 6 rtProtoDV 26 ------- 0 1.2013 6.1492 -1 190
+ 0.00802 1 6 rtProtoDV 26 ------- 0 1.2013 6.1492 -1 209
- 0.00802 1 6 rtProtoDV 26 ------- 0 1.2013 6.1492 -1 209
+ 0.010239 1 6 rtProtoDV 26 ------- 0 1.2013 6.1492 -1 302
- 0.010239 1 6 rtProtoDV 26 ------- 0 1.2013 6.1492 -1 302
r 0.010806 1 6 rtProtoDV 26 ------- 0 1.2013 6.1492 -1 24
+ 0.012991 1 6 rtProtoDV 26 ------- 0 1.2013 6.1492 -1 467
- 0.012991 1 6 rtProtoDV 26 ------- 0 1.2013 6.1492 -1 467
r 0.014132 1 6 rtProtoDV 26 ------- 0 1.2013 6.1492 -1 102
r 0.015757 1 6 rtProtoDV 26 ------- 0 1.2013 6.1492 -1 160
r 0.016326 1 6 rtProtoDV 26 ------- 0 1.2013 6.1492 -1 190
r 0.016577 1 6 rtProtoDV 26 ------- 0 1.2013 6.1492 -1 209
+ 0.016623 1 6 rtProtoDV 26 ------- 0 1.2013 6.1492 -1 613
- 0.016623 1 6 rtProtoDV 26 ------- 0 1.2013 6.1492 -1 613
+ 0.016898 1 6 rtProtoDV 26 ------- 0 1.2013 6.1492 -1 633
- 0.016898 1 6 rtProtoDV 26 ------- 0 1.2013 6.1492 -1 633
+ 0.018751 1 6 rtProtoDV 26 ------- 0 1.2013 6.1492 -1 702
- 0.018751 1 6 rtProtoDV 26 ------- 0 1.2013 6.1492 -1 702
r 0.018796 1 6 rtProtoDV 26 ------- 0 1.2013 6.1492 -1 302
+ 0.019138 1 6 rtProtoDV 26 ------- 0 1.2013 6.1492 -1 715
- 0.019138 1 6 rtProtoDV 26 ------- 0 1.2013 6.1492 -1 715
+ 0.019363 1 6 rtProtoDV 26 ------- 0 1.2013 6.1492 -1 731
- 0.019363 1 6 rtProtoDV 26 ------- 0 1.2013 6.1492 -1 731
r 0.021548 1 6 rtProtoDV 26 ------- 0 1.2013 6.1492 -1 467
+ 0.021902 1 6 tcp 40 ------- 0 16.216 6.723 0 711
- 0.021902 1 6 tcp 40 ------- 0 16.216 6.723 0 711
+ 0.022957 1 6 rtProtoDV 26 ------- 0 1.2013 6.1492 -1 828
- 0.022957 1 6 rtProtoDV 26 ------- 0 1.2013 6.1492 -1 828
r 0.02518 1 6 rtProtoDV 26 ------- 0 1.2013 6.1492 -1 613
r 0.025455 1 6 rtProtoDV 26 ------- 0 1.2013 6.1492 -1 633
r 0.027308 1 6 rtProtoDV 26 ------- 0 1.2013 6.1492 -1 702
r 0.027695 1 6 rtProtoDV 26 ------- 0 1.2013 6.1492 -1 715
r 0.02792 1 6 rtProtoDV 26 ------- 0 1.2013 6.1492 -1 731
r 0.03047 1 6 tcp 40 ------- 0 16.216 6.723 0 711
+ 0.0308 1 6 ack 40 ------- 0 1.354 9.84 0 1011
- 0.0308 1 6 ack 40 ------- 0 1.354 9.84 0 1011
r 0.031514 1 6 rtProtoDV 26 ------- 0 1.2013 6.1492 -1 828
+ 0.035188 1 6 ack 40 ------- 0 1.840 20.55 0 1113
- 0.035188 1 6 ack 40 ------- 0 1.840 20.55 0 1113
+ 0.03522 1 6 ack 40 ------- 0 1.872 20.87 0 1115
- 0.03522 1 6 ack 40 ------- 0 1.872 20.87 0 1115
r 0.039368 1 6 ack 40 ------- 0 1.354 9.84 0 1011
r 0.043756 1 6 ack 40 ------- 0 1.840 20.55 0 1113
r 0.043788 1 6 ack 40 ------- 0 1.872 20.87 0 1115
+ 0.045184 1 6 tcp 40 ------- 0 1.1863 20.743 0 1370
- 0.045184 1 6 tcp 40 ------- 0 1.1863 20.743 0 1370
+ 0.04964 1 6 tcp 1540 ------- 0 16.216 6.723 1 1278
- 0.04964 1 6 tcp 1540 ------- 0 16.216 6.723 1 1278
r 0.053752 1 6 tcp 40 ------- 0 1.1863 20.743 0 1370
+ 0.054568 1 6 tcp 1540 ------- 0 16.216 6.723 2 1279
- 0.054568 1 6 tcp 1540 ------- 0 16.216 6.723 2 1279
r 0.059408 1 6 tcp 1540 ------- 0 16.216 6.723 1 1278
+ 0.059709 1 6 ack 40 ------- 0 1.354 9.84 1 1748
- 0.059709 1 6 ack 40 ------- 0 1.354 9.84 1 1748
+ 0.060941 1 6 ack 40 ------- 0 1.354 9.84 2 1780
- 0.060941 1 6 ack 40 ------- 0 1.354 9.84 2 1780
r 0.064336 1 6 tcp 1540 ------- 0 16.216 6.723 2 1279
+ 0.065954 1 6 ack 40 ------- 0 16.826 20.589 0 1727
- 0.065954 1 6 ack 40 ------- 0 16.826 20.589 0 1727
+ 0.067657 1 6 tcp 40 ------- 0 1.1224 6.226 0 1959
- 0.067657 1 6 tcp 40 ------- 0 1.1224 6.226 0 1959
r 0.068278 1 6 ack 40 ------- 0 1.354 9.84 1 1748
+ 0.068932 1 6 ack 40 ------- 0 21.694 9.1300 0 1567
- 0.068932 1 6 ack 40 ------- 0 21.694 9.1300 0 1567
+ 0.069063 1 6 rtProtoDV 26 ------- 0 1.2013 6.1492 -1 2015
- 0.069063 1 6 rtProtoDV 26 ------- 0 1.2013 6.1492 -1 2015
r 0.06951 1 6 ack 40 ------- 0 1.354 9.84 2 1780
+ 0.070581 1 6 ack 40 ------- 0 1.357 9.87 0 2061
- 0.070581 1 6 ack 40 ------- 0 1.357 9.87 0 2061
r 0.074522 1 6 ack 40 ------- 0 16.826 20.589 0 1727
r 0.076226 1 6 tcp 40 ------- 0 1.1224 6.226 0 1959
+ 0.076367 1 6 ack 40 ------- 0 1.882 20.97 0 2261
- 0.076367 1 6 ack 40 ------- 0 1.882 20.97 0 2261
r 0.0775 1 6 ack 40 ------- 0 21.694 9.1300 0 1567
r 0.07762 1 6 rtProtoDV 26 ------- 0 1.2013 6.1492 -1 2015
+ 0.078163 1 6 rtProtoDV 26 ------- 0 1.2013 6.1492 -1 2322
- 0.078163 1 6 rtProtoDV 26 ------- 0 1.2013 6.1492 -1 2322
+ 0.078577 1 6 tcp 1540 ------- 0 16.216 6.723 3 2069
- 0.078577 1 6 tcp 1540 ------- 0 16.216 6.723 3 2069
r 0.079149 1 6 ack 40 ------- 0 1.357 9.87 0 2061
+ 0.079525 1 6 ack 40 ------- 0 1.874 20.89 0 2375
- 0.079809 1 6 ack 40 ------- 0 1.874 20.89 0 2375
+ 0.080428 1 6 rtProtoDV 26 ------- 0 1.2013 6.1492 -1 2408
- 0.080428 1 6 rtProtoDV 26 ------- 0 1.2013 6.1492 -1 2408
+ 0.083505 1 6 tcp 1540 ------- 0 16.216 6.723 4 2070
- 0.083505 1 6 tcp 1540 ------- 0 16.216 6.723 4 2070
+ 0.084794 1 6 tcp 1540 ------- 0 1.1224 6.226 1 2552
- 0.084794 1 6 tcp 1540 ------- 0 1.1224 6.226 1 2552
+ 0.084794 1 6 tcp 1540 ------- 0 1.1224 6.226 2 2553
r 0.084936 1 6 ack 40 ------- 0 1.882 20.97 0 2261
- 0.086026 1 6 tcp 1540 ------- 0 1.1224 6.226 2 2553
r 0.08672 1 6 rtProtoDV 26 ------- 0 1.2013 6.1492 -1 2322
r 0.088346 1 6 tcp 1540 ------- 0 16.216 6.723 3 2069
r 0.088378 1 6 ack 40 ------- 0 1.874 20.89 0 2375
+ 0.088619 1 6 ack 40 ------- 0 1.354 9.84 3 2685
- 0.088619 1 6 ack 40 ------- 0 1.354 9.84 3 2685
r 0.088985 1 6 rtProtoDV 26 ------- 0 1.2013 6.1492 -1 2408
+ 0.089161 1 6 tcp 40 ------- 0 3.910 6.323 0 2418
- 0.089161 1 6 tcp 40 ------- 0 3.910 6.323 0 2418
+ 0.089851 1 6 ack 40 ------- 0 1.354 9.84 4 2724
- 0.089851 1 6 ack 40 ------- 0 1.354 9.84 4 2724
+ 0.091083 1 6 ack 40 ------- 0 1.354 9.84 5 2770
- 0.091083 1 6 ack 40 ------- 0 1.354 9.84 5 2770
+ 0.092315 1 6 ack 40 ------- 0 1.354 9.84 6 2800
- 0.092315 1 6 ack 40 ------- 0 1.354 9.84 6 2800
r 0.093274 1 6 tcp 1540 ------- 0 16.216 6.723 4 2070
r 0.094562 1 6 tcp 1540 ------- 0 1.1224 6.226 1 2552
+ 0.095504 1 6 ack 40 ------- 0 1.840 20.55 1 2887
- 0.095504 1 6 ack 40 ------- 0 1.840 20.55 1 2887
+ 0.095536 1 6 ack 40 ------- 0 1.266 6.53 0 2888
- 0.095536 1 6 ack 40 ------- 0 1.266 6.53 0 2888
r 0.095794 1 6 tcp 1540 ------- 0 1.1224 6.226 2 2553
r 0.097188 1 6 ack 40 ------- 0 1.354 9.84 3 2685
r 0.09773 1 6 tcp 40 ------- 0 3.910 6.323 0 2418
+ 0.098373 1 6 tcp 1540 ------- 0 16.216 6.723 5 2240
- 0.098373 1 6 tcp 1540 ------- 0 16.216 6.723 5 2240
r 0.09842 1 6 ack 40 ------- 0 1.354 9.84 4 2724
+ 0.099522 1 6 tcp 40 ------- 0 3.893 6.306 0 2642
- 0.099605 1 6 tcp 40 ------- 0 3.893 6.306 0 2642
r 0.099652 1 6 ack 40 ------- 0 1.354 9.84 5 2770
+ 0.100394 1 6 tcp 40 ------- 0 24.205 9.1003 0 1937
- 0.100394 1 6 tcp 40 ------- 0 24.205 9.1003 0 1937
+ 0.100432 1 6 ack 40 ------- 0 1.840 20.55 2 3059
- 0.100432 1 6 ack 40 ------- 0 1.840 20.55 2 3059
r 0.100884 1 6 ack 40 ------- 0 1.354 9.84 6 2800
+ 0.100914 1 6 tcp 40 ------- 0 3.902 6.315 0 2805
- 0.100914 1 6 tcp 40 ------- 0 3.902 6.315 0 2805
+ 0.103301 1 6 tcp 1540 ------- 0 16.216 6.723 6 2241
- 0.103301 1 6 tcp 1540 ------- 0 16.216 6.723 6 2241
+ 0.103556 1 6 tcp 1540 ------- 0 21.277 9.959 1 2347
+ 0.103857 1 6 tcp 1540 ------- 0 1.1224 6.226 3 3187
+ 0.103857 1 6 tcp 1540 ------- 0 1.1224 6.226 4 3188
r 0.104072 1 6 ack 40 ------- 0 1.840 20.55 1 2887
r 0.104104 1 6 ack 40 ------- 0 1.266 6.53 0 2888
- 0.104533 1 6 tcp 1540 ------- 0 21.277 9.959 1 2347
+ 0.105121 1 6 tcp 1540 ------- 0 1.1224 6.226 5 3231
+ 0.105121 1 6 tcp 1540 ------- 0 1.1224 6.226 6 3232
- 0.105765 1 6 tcp 1540 ------- 0 1.1224 6.226 3 3187
+ 0.106353 1 6 ack 40 ------- 0 1.872 20.87 1 3272
- 0.106997 1 6 tcp 1540 ------- 0 1.1224 6.226 4 3188
+ 0.107585 1 6 ack 40 ------- 0 1.357 9.87 1 3305
r 0.108141 1 6 tcp 1540 ------- 0 16.216 6.723 5 2240
r 0.108173 1 6 tcp 40 ------- 0 3.893 6.306 0 2642
- 0.108229 1 6 tcp 1540 ------- 0 1.1224 6.226 5 3231
+ 0.108484 1 6 tcp 1540 ------- 0 21.277 9.959 2 2348
+ 0.108849 1 6 ack 40 ------- 0 1.357 9.87 2 3344
r 0.108962 1 6 tcp 40 ------- 0 24.205 9.1003 0 1937
r 0.109 1 6 ack 40 ------- 0 1.840 20.55 2 3059
- 0.109461 1 6 tcp 1540 ------- 0 1.1224 6.226 6 3232
r 0.109482 1 6 tcp 40 ------- 0 3.902 6.315 0 2805
+ 0.110288 1 6 ack 40 ------- 0 1.872 20.87 2 3385
+ 0.11032 1 6 ack 40 ------- 0 1.896 20.111 0 3386
- 0.110693 1 6 ack 40 ------- 0 1.872 20.87 1 3272
- 0.110725 1 6 ack 40 ------- 0 1.357 9.87 1 3305
- 0.110757 1 6 tcp 1540 ------- 0 21.277 9.959 2 2348
- 0.111989 1 6 ack 40 ------- 0 1.357 9.87 2 3344
- 0.112021 1 6 ack 40 ------- 0 1.872 20.87 2 3385
- 0.112053 1 6 ack 40 ------- 0 1.896 20.111 0 3386
r 0.113069 1 6 tcp 1540 ------- 0 16.216 6.723 6 2241
+ 0.113412 1 6 tcp 1540 ------- 0 21.261 9.943 1 2353
- 0.113412 1 6 tcp 1540 ------- 0 21.261 9.943 1 2353
+ 0.113872 1 6 ack 40 ------- 0 1.266 6.53 1 3498
+ 0.113974 1 6 tcp 40 ------- 0 2.832 6.274 0 2214
r 0.114301 1 6 tcp 1540 ------- 0 21.277 9.959 1 2347
- 0.114644 1 6 ack 40 ------- 0 1.266 6.53 1 3498
- 0.114676 1 6 tcp 40 ------- 0 2.832 6.274 0 2214
+ 0.115104 1 6 ack 40 ------- 0 1.266 6.53 2 3536
- 0.115104 1 6 ack 40 ------- 0 1.266 6.53 2 3536
r 0.115533 1 6 tcp 1540 ------- 0 1.1224 6.226 3 3187
r 0.116765 1 6 tcp 1540 ------- 0 1.1224 6.226 4 3188
+ 0.117702 1 6 ack 40 ------- 0 2.256 6.101 0 2327
- 0.117702 1 6 ack 40 ------- 0 2.256 6.101 0 2327
r 0.117997 1 6 tcp 1540 ------- 0 1.1224 6.226 5 3231
+ 0.11834 1 6 tcp 1540 ------- 0 21.261 9.943 2 2354
- 0.11834 1 6 tcp 1540 ------- 0 21.261 9.943 2 2354
r 0.119229 1 6 tcp 1540 ------- 0 1.1224 6.226 6 3232
r 0.119261 1 6 ack 40 ------- 0 1.872 20.87 1 3272
r 0.119293 1 6 ack 40 ------- 0 1.357 9.87 1 3305
r 0.120525 1 6 tcp 1540 ------- 0 21.277 9.959 2 2348
r 0.120557 1 6 ack 40 ------- 0 1.357 9.87 2 3344
r 0.120589 1 6 ack 40 ------- 0 1.872 20.87 2 3385
r 0.120621 1 6 ack 40 ------- 0 1.896 20.111 0 3386
r 0.12318 1 6 tcp 1540 ------- 0 21.261 9.943 1 2353
r 0.123212 1 6 ack 40 ------- 0 1.266 6.53 1 3498
r 0.123244 1 6 tcp 40 ------- 0 2.832 6.274 0 2214
+ 0.123657 1 6 ack 40 ------- 0 1.354 9.84 7 3790
- 0.123657 1 6 ack 40 ------- 0 1.354 9.84 7 3790
r 0.123672 1 6 ack 40 ------- 0 1.266 6.53 2 3536
+ 0.124889 1 6 ack 40 ------- 0 1.354 9.84 8 3840
- 0.124889 1 6 ack 40 ------- 0 1.354 9.84 8 3840
+ 0.124921 1 6 tcp 1540 ------- 0 1.1224 6.226 7 3844
+ 0.124921 1 6 tcp 1540 ------- 0 1.1224 6.226 8 3845
- 0.124921 1 6 tcp 1540 ------- 0 1.1224 6.226 7 3844
+ 0.125333 1 6 tcp 1540 ------- 0 1.1224 6.226 9 3858
+ 0.125333 1 6 tcp 1540 ------- 0 1.1224 6.226 10 3859
- 0.126153 1 6 tcp 1540 ------- 0 1.1224 6.226 8 3845
r 0.12627 1 6 ack 40 ------- 0 2.256 6.101 0 2327
+ 0.126565 1 6 tcp 1540 ------- 0 1.1224 6.226 11 3903
+ 0.126565 1 6 tcp 1540 ------- 0 1.1224 6.226 12 3904
- 0.127385 1 6 tcp 1540 ------- 0 1.1224 6.226 9 3858
+ 0.128024 1 6 tcp 1540 ------- 0 16.216 6.723 7 3037
r 0.128108 1 6 tcp 1540 ------- 0 21.261 9.943 2 2354
- 0.128617 1 6 tcp 1540 ------- 0 1.1224 6.226 10 3859
+ 0.128681 1 6 ack 40 ------- 0 1.354 9.84 9 3974
+ 0.128713 1 6 tcp 1540 ------- 0 1.1224 6.226 13 3975
+ 0.128713 1 6 tcp 1540 ------- 0 1.1224 6.226 14 3976
+ 0.128745 1 6 tcp 1540 ------- 0 1.1863 20.743 1 3977
+ 0.128745 1 6 tcp 1540 ------- 0 1.1863 20.743 2 3978
- 0.129849 1 6 tcp 1540 ------- 0 1.1224 6.226 11 3903
+ 0.129977 1 6 ack 40 ------- 0 1.354 9.84 10 4012
- 0.131081 1 6 tcp 1540 ------- 0 1.1224 6.226 12 3904
+ 0.131209 1 6 ack 40 ------- 0 1.354 9.84 11 4053
+ 0.131516 1 6 ack 40 ------- 0 18.396 6.1313 0 3467
+ 0.131772 1 6 tcp 40 ------- 0 17.223 6.729 0 3781
d 0.131772 1 6 tcp 40 ------- 0 17.223 6.729 0 3781
r 0.132226 1 6 ack 40 ------- 0 1.354 9.84 7 3790
- 0.132313 1 6 tcp 1540 ------- 0 16.216 6.723 7 3037
+ 0.132441 1 6 ack 40 ------- 0 1.354 9.84 12 4085
+ 0.132952 1 6 tcp 1540 ------- 0 16.216 6.723 8 3038
d 0.132952 1 6 tcp 1540 ------- 0 16.216 6.723 8 3038
+ 0.133208 1 6 tcp 40 ------- 0 16.211 6.718 0 3257
d 0.133208 1 6 tcp 40 ------- 0 16.211 6.718 0 3257
r 0.133458 1 6 ack 40 ------- 0 1.354 9.84 8 3840
- 0.133545 1 6 ack 40 ------- 0 1.354 9.84 9 3974
- 0.133577 1 6 tcp 1540 ------- 0 1.1224 6.226 13 3975
+ 0.133673 1 6 ack 40 ------- 0 1.266 6.53 3 4122
r 0.13469 1 6 tcp 1540 ------- 0 1.1224 6.226 7 3844
- 0.134809 1 6 tcp 1540 ------- 0 1.1224 6.226 14 3976
+ 0.134905 1 6 ack 40 ------- 0 1.266 6.53 4 4164
r 0.135922 1 6 tcp 1540 ------- 0 1.1224 6.226 8 3845
- 0.136041 1 6 tcp 1540 ------- 0 1.1863 20.743 1 3977
+ 0.136169 1 6 ack 40 ------- 0 1.266 6.53 5 4206
r 0.137154 1 6 tcp 1540 ------- 0 1.1224 6.226 9 3858
- 0.137273 1 6 tcp 1540 ------- 0 1.1863 20.743 2 3978
+ 0.137401 1 6 ack 40 ------- 0 1.266 6.53 6 4235
r 0.138386 1 6 tcp 1540 ------- 0 1.1224 6.226 10 3859
+ 0.138392 1 6 tcp 1540 ------- 0 16.216 6.723 9 3411
- 0.138505 1 6 ack 40 ------- 0 1.354 9.84 10 4012
- 0.138537 1 6 ack 40 ------- 0 1.354 9.84 11 4053
- 0.138569 1 6 ack 40 ------- 0 18.396 6.1313 0 3467
- 0.138601 1 6 ack 40 ------- 0 1.354 9.84 12 4085
+ 0.138633 1 6 ack 40 ------- 0 1.354 9.84 13 4269
- 0.138633 1 6 ack 40 ------- 0 1.266 6.53 3 4122
- 0.138665 1 6 ack 40 ------- 0 1.266 6.53 4 4164
- 0.138697 1 6 ack 40 ------- 0 1.266 6.53 5 4206
- 0.138729 1 6 ack 40 ------- 0 1.266 6.53 6 4235
- 0.138761 1 6 tcp 1540 ------- 0 16.216 6.723 9 3411
r 0.139618 1 6 tcp 1540 ------- 0 1.1224 6.226 11 3903
- 0.139993 1 6 ack 40 ------- 0 1.354 9.84 13 4269
r 0.14085 1 6 tcp 1540 ------- 0 1.1224 6.226 12 3904
+ 0.142041 1 6 tcp 40 ------- 0 2.810 6.252 0 2935
- 0.142041 1 6 tcp 40 ------- 0 2.810 6.252 0 2935
r 0.142082 1 6 tcp 1540 ------- 0 16.216 6.723 7 3037
r 0.142114 1 6 ack 40 ------- 0 1.354 9.84 9 3974
+ 0.142169 1 6 tcp 40 ------- 0 2.811 6.253 0 3019
- 0.142169 1 6 tcp 40 ------- 0 2.811 6.253 0 3019
+ 0.142863 1 6 tcp 40 ------- 0 1.1871 20.751 0 4405
- 0.142863 1 6 tcp 40 ------- 0 1.1871 20.751 0 4405
+ 0.143054 1 6 ack 40 ------- 0 1.357 9.87 3 4411
- 0.143054 1 6 ack 40 ------- 0 1.357 9.87 3 4411
+ 0.14332 1 6 tcp 1540 ------- 0 16.216 6.723 10 3412
- 0.14332 1 6 tcp 1540 ------- 0 16.216 6.723 10 3412
r 0.143346 1 6 tcp 1540 ------- 0 1.1224 6.226 13 3975
+ 0.144286 1 6 ack 40 ------- 0 1.357 9.87 4 4452
+ 0.14435 1 6 tcp 1540 ------- 0 1.1224 6.226 15 4454
+ 0.14435 1 6 tcp 1540 ------- 0 1.1224 6.226 16 4455
- 0.144552 1 6 ack 40 ------- 0 1.357 9.87 4 4452
r 0.144578 1 6 tcp 1540 ------- 0 1.1224 6.226 14 3976
- 0.144584 1 6 tcp 1540 ------- 0 1.1224 6.226 15 4454
+ 0.145582 1 6 ack 40 ------- 0 1.357 9.87 5 4501
+ 0.145614 1 6 tcp 1540 ------- 0 1.1224 6.226 17 4503
+ 0.145614 1 6 tcp 1540 ------- 0 1.1224 6.226 18 4504
r 0.14581 1 6 tcp 1540 ------- 0 1.1863 20.743 1 3977
- 0.145816 1 6 tcp 1540 ------- 0 1.1224 6.226 16 4455
+ 0.146846 1 6 ack 40 ------- 0 1.357 9.87 6 4559
+ 0.14691 1 6 tcp 1540 ------- 0 1.1224 6.226 19 4561
+ 0.14691 1 6 tcp 1540 ------- 0 1.1224 6.226 20 4562
r 0.147042 1 6 tcp 1540 ------- 0 1.1863 20.743 2 3978
- 0.147048 1 6 ack 40 ------- 0 1.357 9.87 5 4501
r 0.147074 1 6 ack 40 ------- 0 1.354 9.84 10 4012
- 0.14708 1 6 tcp 1540 ------- 0 1.1224 6.226 17 4503
r 0.147106 1 6 ack 40 ------- 0 1.354 9.84 11 4053
r 0.147138 1 6 ack 40 ------- 0 18.396 6.1313 0 3467
r 0.14717 1 6 ack 40 ------- 0 1.354 9.84 12 4085
r 0.147202 1 6 ack 40 ------- 0 1.266 6.53 3 4122
r 0.147234 1 6 ack 40 ------- 0 1.266 6.53 4 4164
r 0.147266 1 6 ack 40 ------- 0 1.266 6.53 5 4206
r 0.147298 1 6 ack 40 ------- 0 1.266 6.53 6 4235
+ 0.148174 1 6 tcp 1540 ------- 0 1.1224 6.226 21 4613
+ 0.148174 1 6 tcp 1540 ------- 0 1.1224 6.226 22 4614
+ 0.148206 1 6 ack 40 ------- 0 1.291 9.21 0 4615
+ 0.14827 1 6 tcp 1540 ------- 0 1.1224 6.226 23 4616
+ 0.14827 1 6 tcp 1540 ------- 0 1.1224 6.226 24 4617
- 0.148312 1 6 tcp 1540 ------- 0 1.1224 6.226 18 4504
r 0.14853 1 6 tcp 1540 ------- 0 16.216 6.723 9 3411
r 0.148562 1 6 ack 40 ------- 0 1.354 9.84 13 4269
+ 0.149418 1 6 tcp 1540 ------- 0 1.1224 6.226 25 4652
+ 0.149418 1 6 tcp 1540 ------- 0 1.1224 6.226 26 4653
d 0.149418 1 6 tcp 1540 ------- 0 1.1224 6.226 26 4653
- 0.149544 1 6 ack 40 ------- 0 1.357 9.87 6 4559
- 0.149576 1 6 tcp 1540 ------- 0 1.1224 6.226 19 4561
+ 0.149991 1 6 ack 40 ------- 0 1.359 9.89 0 4675
r 0.150609 1 6 tcp 40 ------- 0 2.810 6.252 0 2935
r 0.150737 1 6 tcp 40 ------- 0 2.811 6.253 0 3019
- 0.150808 1 6 tcp 1540 ------- 0 1.1224 6.226 20 4562
r 0.151432 1 6 tcp 40 ------- 0 1.1871 20.751 0 4405
r 0.151622 1 6 ack 40 ------- 0 1.357 9.87 3 4411
+ 0.151914 1 6 tcp 1540 ------- 0 1.1224 6.226 27 4728
+ 0.151914 1 6 tcp 1540 ------- 0 1.1224 6.226 28 4729
+ 0.152019 1 6 tcp 40 ------- 0 3.908 6.321 0 4374
d 0.152019 1 6 tcp 40 ------- 0 3.908 6.321 0 4374
- 0.15204 1 6 tcp 1540 ------- 0 1.1224 6.226 21 4613
r 0.153088 1 6 tcp 1540 ------- 0 16.216 6.723 10 3412
r 0.15312 1 6 ack 40 ------- 0 1.357 9.87 4 4452
+ 0.153146 1 6 tcp 1540 ------- 0 1.1224 6.226 29 4765
+ 0.153146 1 6 tcp 1540 ------- 0 1.1224 6.226 30 4766
d 0.153146 1 6 tcp 1540 ------- 0 1.1224 6.226 30 4766
- 0.153272 1 6 tcp 1540 ------- 0 1.1224 6.226 22 4614
r 0.154352 1 6 tcp 1540 ------- 0 1.1224 6.226 15 4454
- 0.154504 1 6 ack 40 ------- 0 1.291 9.21 0 4615
- 0.154536 1 6 tcp 1540 ------- 0 1.1224 6.226 23 4616
+ 0.15486 1 6 ack 40 ------- 0 1.354 9.84 14 4842
r 0.155584 1 6 tcp 1540 ------- 0 1.1224 6.226 16 4455
r 0.155616 1 6 ack 40 ------- 0 1.357 9.87 5 4501
- 0.155768 1 6 tcp 1540 ------- 0 1.1224 6.226 24 4617
+ 0.156092 1 6 ack 40 ------- 0 1.354 9.84 15 4881
r 0.156848 1 6 tcp 1540 ------- 0 1.1224 6.226 17 4503
- 0.157 1 6 tcp 1540 ------- 0 1.1224 6.226 25 4652
+ 0.157324 1 6 ack 40 ------- 0 1.266 6.53 7 4928
r 0.15808 1 6 tcp 1540 ------- 0 1.1224 6.226 18 4504
r 0.158112 1 6 ack 40 ------- 0 1.357 9.87 6 4559
- 0.158232 1 6 ack 40 ------- 0 1.359 9.89 0 4675
- 0.158264 1 6 tcp 1540 ------- 0 1.1224 6.226 27 4728
+ 0.158488 1 6 tcp 1540 ------- 0 16.216 6.723 11 3658
+ 0.158556 1 6 ack 40 ------- 0 1.266 6.53 8 4959
r 0.159344 1 6 tcp 1540 ------- 0 1.1224 6.226 19 4561
- 0.159496 1 6 tcp 1540 ------- 0 1.1224 6.226 28 4729
+ 0.159782 1 6 ack 40 ------- 0 24.723 9.1359 0 3897
+ 0.159788 1 6 ack 40 ------- 0 1.266 6.53 9 4998
r 0.160576 1 6 tcp 1540 ------- 0 1.1224 6.226 20 4562
- 0.160728 1 6 tcp 1540 ------- 0 1.1224 6.226 29 4765
+ 0.16102 1 6 ack 40 ------- 0 1.266 6.53 10 5061
r 0.161808 1 6 tcp 1540 ------- 0 1.1224 6.226 21 4613
- 0.16196 1 6 ack 40 ------- 0 1.354 9.84 14 4842
- 0.161992 1 6 ack 40 ------- 0 1.354 9.84 15 4881
- 0.162024 1 6 ack 40 ------- 0 1.266 6.53 7 4928
- 0.162056 1 6 tcp 1540 ------- 0 16.216 6.723 11 3658
+ 0.162252 1 6 ack 40 ------- 0 1.266 6.53 11 5110
r 0.16304 1 6 tcp 1540 ------- 0 1.1224 6.226 22 4614
r 0.163072 1 6 ack 40 ------- 0 1.291 9.21 0 4615
- 0.163288 1 6 ack 40 ------- 0 1.266 6.53 8 4959
- 0.16332 1 6 ack 40 ------- 0 24.723 9.1359 0 3897
- 0.163352 1 6 ack 40 ------- 0 1.266 6.53 9 4998
- 0.163384 1 6 ack 40 ------- 0 1.266 6.53 10 5061
+ 0.163416 1 6 tcp 1540 ------- 0 16.216 6.723 12 3659
- 0.163416 1 6 ack 40 ------- 0 1.266 6.53 11 5110
- 0.163448 1 6 tcp 1540 ------- 0 16.216 6.723 12 3659
+ 0.163484 1 6 ack 40 ------- 0 1.266 6.53 12 5167
r 0.164304 1 6 tcp 1540 ------- 0 1.1224 6.226 23 4616
- 0.16468 1 6 ack 40 ------- 0 1.266 6.53 12 5167
+ 0.164716 1 6 ack 40 ------- 0 1.266 6.53 13 5197
- 0.164716 1 6 ack 40 ------- 0 1.266 6.53 13 5197
r 0.165536 1 6 tcp 1540 ------- 0 1.1224 6.226 24 4617
+ 0.165588 1 6 tcp 40 ------- 0 4.842 6.371 0 4329
- 0.165588 1 6 tcp 40 ------- 0 4.842 6.371 0 4329
+ 0.165948 1 6 ack 40 ------- 0 1.266 6.53 14 5260
- 0.165948 1 6 ack 40 ------- 0 1.266 6.53 14 5260
r 0.166768 1 6 tcp 1540 ------- 0 1.1224 6.226 25 4652
r 0.1668 1 6 ack 40 ------- 0 1.359 9.89 0 4675
+ 0.16718 1 6 ack 40 ------- 0 1.354 9.84 16 5307
- 0.16718 1 6 ack 40 ------- 0 1.354 9.84 16 5307
r 0.168032 1 6 tcp 1540 ------- 0 1.1224 6.226 27 4728
+ 0.168444 1 6 ack 40 ------- 0 1.354 9.84 17 5348
- 0.168444 1 6 ack 40 ------- 0 1.354 9.84 17 5348
+ 0.16854 1 6 ack 40 ------- 0 1.365 9.95 0 5352
- 0.16854 1 6 ack 40 ------- 0 1.365 9.95 0 5352
r 0.169264 1 6 tcp 1540 ------- 0 1.1224 6.226 28 4729
+ 0.169772 1 6 ack 40 ------- 0 1.354 9.84 18 5401
- 0.169772 1 6 ack 40 ------- 0 1.354 9.84 18 5401
r 0.170496 1 6 tcp 1540 ------- 0 1.1224 6.226 29 4765
r 0.170528 1 6 ack 40 ------- 0 1.354 9.84 14 4842
r 0.17056 1 6 ack 40 ------- 0 1.354 9.84 15 4881
r 0.170592 1 6 ack 40 ------- 0 1.266 6.53 7 4928
+ 0.171036 1 6 ack 40 ------- 0 1.354 9.84 19 5467
- 0.171036 1 6 ack 40 ------- 0 1.354 9.84 19 5467
+ 0.171068 1 6 tcp 1540 ------- 0 1.1224 6.226 31 5470
- 0.171068 1 6 tcp 1540 ------- 0 1.1224 6.226 31 5470
+ 0.171068 1 6 tcp 1540 ------- 0 1.1224 6.226 32 5471
+ 0.1711 1 6 tcp 1540 ------- 0 1.1224 6.226 33 5473
+ 0.1711 1 6 tcp 1540 ------- 0 1.1224 6.226 34 5474
+ 0.171152 1 6 tcp 1540 ------- 0 1.1224 6.226 35 5480
+ 0.171152 1 6 tcp 1540 ------- 0 1.1224 6.226 36 5481
+ 0.171216 1 6 tcp 1540 ------- 0 1.1224 6.226 37 5483
+ 0.171216 1 6 tcp 1540 ------- 0 1.1224 6.226 38 5484
r 0.171824 1 6 tcp 1540 ------- 0 16.216 6.723 11 3658
r 0.171856 1 6 ack 40 ------- 0 1.266 6.53 8 4959
r 0.171888 1 6 ack 40 ------- 0 24.723 9.1359 0 3897
r 0.17192 1 6 ack 40 ------- 0 1.266 6.53 9 4998
r 0.171952 1 6 ack 40 ------- 0 1.266 6.53 10 5061
r 0.171984 1 6 ack 40 ------- 0 1.266 6.53 11 5110
- 0.1723 1 6 tcp 1540 ------- 0 1.1224 6.226 32 5471
+ 0.172448 1 6 ack 40 ------- 0 1.354 9.84 20 5565
+ 0.17248 1 6 tcp 1540 ------- 0 1.1224 6.226 39 5566
r 0.173216 1 6 tcp 1540 ------- 0 16.216 6.723 12 3659
r 0.173248 1 6 ack 40 ------- 0 1.266 6.53 12 5167
r 0.173284 1 6 ack 40 ------- 0 1.266 6.53 13 5197
- 0.173532 1 6 tcp 1540 ------- 0 1.1224 6.226 33 5473
+ 0.173712 1 6 ack 40 ------- 0 1.354 9.84 21 5606
+ 0.173744 1 6 ack 40 ------- 0 1.246 6.33 0 5608
+ 0.173776 1 6 tcp 1540 ------- 0 1.1224 6.226 40 5610
d 0.173776 1 6 tcp 1540 ------- 0 1.1224 6.226 40 5610
r 0.174156 1 6 tcp 40 ------- 0 4.842 6.371 0 4329
r 0.174516 1 6 ack 40 ------- 0 1.266 6.53 14 5260
- 0.174764 1 6 tcp 1540 ------- 0 1.1224 6.226 34 5474
+ 0.175008 1 6 ack 40 ------- 0 1.354 9.84 22 5653
+ 0.17504 1 6 tcp 1540 ------- 0 1.1224 6.226 41 5656
d 0.17504 1 6 tcp 1540 ------- 0 1.1224 6.226 41 5656
r 0.175748 1 6 ack 40 ------- 0 1.354 9.84 16 5307
- 0.175996 1 6 tcp 1540 ------- 0 1.1224 6.226 35 5480
+ 0.176272 1 6 ack 40 ------- 0 1.354 9.84 23 5700
+ 0.176304 1 6 tcp 1540 ------- 0 1.1224 6.226 42 5702
d 0.176304 1 6 tcp 1540 ------- 0 1.1224 6.226 42 5702
r 0.177012 1 6 ack 40 ------- 0 1.354 9.84 17 5348
r 0.177108 1 6 ack 40 ------- 0 1.365 9.95 0 5352
- 0.177228 1 6 tcp 1540 ------- 0 1.1224 6.226 36 5481
+ 0.177536 1 6 ack 40 ------- 0 1.354 9.84 24 5747
+ 0.177568 1 6 tcp 1540 ------- 0 1.1224 6.226 43 5748
d 0.177568 1 6 tcp 1540 ------- 0 1.1224 6.226 43 5748
+ 0.178328 1 6 tcp 1540 ------- 0 16.216 6.723 13 3822
d 0.178328 1 6 tcp 1540 ------- 0 16.216 6.723 13 3822
r 0.17834 1 6 ack 40 ------- 0 1.354 9.84 18 5401
- 0.17846 1 6 tcp 1540 ------- 0 1.1224 6.226 37 5483
+ 0.178622 1 6 ack 40 ------- 0 21.694 9.1300 1 4037
+ 0.17875 1 6 ack 40 ------- 0 21.694 9.1300 2 4194
d 0.17875 1 6 ack 40 ------- 0 21.694 9.1300 2 4194
+ 0.1788 1 6 ack 40 ------- 0 1.354 9.84 25 5777
d 0.1788 1 6 ack 40 ------- 0 1.354 9.84 25 5777
+ 0.178832 1 6 tcp 1540 ------- 0 1.1224 6.226 44 5778
d 0.178832 1 6 tcp 1540 ------- 0 1.1224 6.226 44 5778
+ 0.179465 1 6 tcp 1540 ------- 0 3.910 6.323 1 5156
d 0.179465 1 6 tcp 1540 ------- 0 3.910 6.323 1 5156
r 0.179604 1 6 ack 40 ------- 0 1.354 9.84 19 5467
- 0.179692 1 6 tcp 1540 ------- 0 1.1224 6.226 38 5484
+ 0.180064 1 6 ack 40 ------- 0 1.354 9.84 26 5818
+ 0.180096 1 6 tcp 1540 ------- 0 1.1224 6.226 45 5820
d 0.180096 1 6 tcp 1540 ------- 0 1.1224 6.226 45 5820
+ 0.180729 1 6 tcp 1540 ------- 0 3.910 6.323 2 5157
d 0.180729 1 6 tcp 1540 ------- 0 3.910 6.323 2 5157
r 0.180836 1 6 tcp 1540 ------- 0 1.1224 6.226 31 5470
- 0.180924 1 6 ack 40 ------- 0 1.354 9.84 20 5565
- 0.180956 1 6 tcp 1540 ------- 0 1.1224 6.226 39 5566
+ 0.181328 1 6 ack 40 ------- 0 1.354 9.84 27 5851
r 0.182068 1 6 tcp 1540 ------- 0 1.1224 6.226 32 5471
+ 0.182185 1 6 tcp 1540 ------- 0 3.893 6.306 1 5448
- 0.182188 1 6 ack 40 ------- 0 1.354 9.84 21 5606
- 0.18222 1 6 ack 40 ------- 0 1.246 6.33 0 5608
- 0.182252 1 6 ack 40 ------- 0 1.354 9.84 22 5653
- 0.182284 1 6 ack 40 ------- 0 1.354 9.84 23 5700
- 0.182316 1 6 ack 40 ------- 0 1.354 9.84 24 5747
- 0.182348 1 6 ack 40 ------- 0 21.694 9.1300 1 4037
- 0.18238 1 6 ack 40 ------- 0 1.354 9.84 26 5818
- 0.182412 1 6 ack 40 ------- 0 1.354 9.84 27 5851
- 0.182444 1 6 tcp 1540 ------- 0 3.893 6.306 1 5448
+ 0.182624 1 6 ack 40 ------- 0 1.357 9.87 7 5894
+ 0.183256 1 6 tcp 1540 ------- 0 16.216 6.723 14 3823
r 0.1833 1 6 tcp 1540 ------- 0 1.1224 6.226 33 5473
+ 0.183449 1 6 tcp 1540 ------- 0 3.893 6.306 2 5449
- 0.183676 1 6 ack 40 ------- 0 1.357 9.87 7 5894
- 0.183708 1 6 tcp 1540 ------- 0 16.216 6.723 14 3823
+ 0.183888 1 6 ack 40 ------- 0 1.357 9.87 8 5929
+ 0.18392 1 6 tcp 1540 ---A--- 0 1.1224 6.226 26 5931
r 0.184532 1 6 tcp 1540 ------- 0 1.1224 6.226 34 5474
+ 0.184628 1 6 tcp 40 ------- 0 1.1244 9.463 0 5958
+ 0.184713 1 6 tcp 1540 ------- 0 3.902 6.315 1 5450
- 0.18494 1 6 tcp 1540 ------- 0 3.893 6.306 2 5449
+ 0.185152 1 6 ack 40 ------- 0 1.266 6.53 15 5978
+ 0.185245 1 6 tcp 40 ------- 0 1.1858 20.738 0 5982
r 0.185764 1 6 tcp 1540 ------- 0 1.1224 6.226 35 5480
- 0.186172 1 6 ack 40 ------- 0 1.357 9.87 8 5929
- 0.186204 1 6 tcp 1540 ---A--- 0 1.1224 6.226 26 5931
+ 0.186384 1 6 ack 40 ------- 0 1.266 6.53 16 6017
r 0.186996 1 6 tcp 1540 ------- 0 1.1224 6.226 36 5481
+ 0.187209 1 6 tcp 1540 ------- 0 3.902 6.315 2 5451
- 0.187436 1 6 tcp 40 ------- 0 1.1244 9.463 0 5958
- 0.187468 1 6 tcp 1540 ------- 0 3.902 6.315 1 5450
+ 0.187616 1 6 ack 40 ------- 0 1.357 9.87 9 6048
r 0.188228 1 6 tcp 1540 ------- 0 1.1224 6.226 37 5483
- 0.1887 1 6 ack 40 ------- 0 1.266 6.53 15 5978
- 0.188732 1 6 tcp 40 ------- 0 1.1858 20.738 0 5982
- 0.188764 1 6 ack 40 ------- 0 1.266 6.53 16 6017
- 0.188796 1 6 tcp 1540 ------- 0 3.902 6.315 2 5451
+ 0.18888 1 6 ack 40 ------- 0 1.266 6.53 17 6089
r 0.18946 1 6 tcp 1540 ------- 0 1.1224 6.226 38 5484
r 0.189492 1 6 ack 40 ------- 0 1.354 9.84 20 5565
- 0.190028 1 6 ack 40 ------- 0 1.357 9.87 9 6048
- 0.19006 1 6 ack 40 ------- 0 1.266 6.53 17 6089
+ 0.190112 1 6 ack 40 ------- 0 1.266 6.53 18 6146
- 0.190112 1 6 ack 40 ------- 0 1.266 6.53 18 6146
r 0.190724 1 6 tcp 1540 ------- 0 1.1224 6.226 39 5566
r 0.190756 1 6 ack 40 ------- 0 1.354 9.84 21 5606
r 0.190788 1 6 ack 40 ------- 0 1.246 6.33 0 5608
r 0.19082 1 6 ack 40 ------- 0 1.354 9.84 22 5653
r 0.190852 1 6 ack 40 ------- 0 1.354 9.84 23 5700
r 0.190884 1 6 ack 40 ------- 0 1.354 9.84 24 5747
r 0.190916 1 6 ack 40 ------- 0 21.694 9.1300 1 4037
r 0.190948 1 6 ack 40 ------- 0 1.354 9.84 26 5818
r 0.19098 1 6 ack 40 ------- 0 1.354 9.84 27 5851
+ 0.191344 1 6 ack 40 ------- 0 1.266 6.53 19 6193
- 0.191344 1 6 ack 40 ------- 0 1.266 6.53 19 6193
r 0.192212 1 6 tcp 1540 ------- 0 3.893 6.306 1 5448
r 0.192244 1 6 ack 40 ------- 0 1.357 9.87 7 5894
+ 0.192576 1 6 ack 40 ------- 0 1.266 6.53 20 6227
- 0.192576 1 6 ack 40 ------- 0 1.266 6.53 20 6227
r 0.193476 1 6 tcp 1540 ------- 0 16.216 6.723 14 3823
+ 0.193808 1 6 ack 40 ------- 0 1.266 6.53 21 6261
- 0.193808 1 6 ack 40 ------- 0 1.266 6.53 21 6261
r 0.194708 1 6 tcp 1540 ------- 0 3.893 6.306 2 5449
r 0.19474 1 6 ack 40 ------- 0 1.357 9.87 8 5929
+ 0.19504 1 6 ack 40 ------- 0 1.266 6.53 22 6305
- 0.19504 1 6 ack 40 ------- 0 1.266 6.53 22 6305
r 0.195972 1 6 tcp 1540 ---A--- 0 1.1224 6.226 26 5931
r 0.196004 1 6 tcp 40 ------- 0 1.1244 9.463 0 5958
+ 0.196272 1 6 ack 40 ------- 0 1.266 6.53 23 6368
- 0.196272 1 6 ack 40 ------- 0 1.266 6.53 23 6368
+ 0.196536 1 6 tcp 40 ------- 0 24.193 9.991 0 5136
- 0.196536 1 6 tcp 40 ------- 0 24.193 9.991 0 5136
r 0.197236 1 6 tcp 1540 ------- 0 3.902 6.315 1 5450
r 0.197268 1 6 ack 40 ------- 0 1.266 6.53 15 5978
r 0.1973 1 6 tcp 40 ------- 0 1.1858 20.738 0 5982
r 0.197332 1 6 ack 40 ------- 0 1.266 6.53 16 6017
+ 0.197504 1 6 ack 40 ------- 0 1.266 6.53 24 6413
- 0.197504 1 6 ack 40 ------- 0 1.266 6.53 24 6413
r 0.198564 1 6 tcp 1540 ------- 0 3.902 6.315 2 5451
r 0.198596 1 6 ack 40 ------- 0 1.357 9.87 9 6048
r 0.198628 1 6 ack 40 ------- 0 1.266 6.53 17 6089
r 0.198681 1 6 ack 40 ------- 0 1.266 6.53 18 6146
+ 0.198736 1 6 ack 40 ------- 0 1.357 9.87 10 6476
- 0.198736 1 6 ack 40 ------- 0 1.357 9.87 10 6476
+ 0.199409 1 6 tcp 40 ------- 0 24.196 9.994 0 5264
- 0.199409 1 6 tcp 40 ------- 0 24.196 9.994 0 5264
r 0.199913 1 6 ack 40 ------- 0 1.266 6.53 19 6193
+ 0.2 1 6 ack 40 ------- 0 1.266 6.53 25 6518
- 0.2 1 6 ack 40 ------- 0 1.266 6.53 25 6518
r 0.201145 1 6 ack 40 ------- 0 1.266 6.53 20 6227
+ 0.201232 1 6 ack 40 ------- 0 1.266 6.53 26 6553
- 0.201232 1 6 ack 40 ------- 0 1.266 6.53 26 6553
r 0.202377 1 6 ack 40 ------- 0 1.266 6.53 21 6261
+ 0.202464 1 6 ack 40 ------- 0 1.266 6.53 27 6608
- 0.202464 1 6 ack 40 ------- 0 1.266 6.53 27 6608
+ 0.203608 1 6 ack 40 ------- 0 16.830 20.593 0 4447
- 0.203608 1 6 ack 40 ------- 0 16.830 20.593 0 4447
r 0.203609 1 6 ack 40 ------- 0 1.266 6.53 22 6305
+ 0.203696 1 6 ack 40 ------- 0 1.266 6.53 28 6643
- 0.203696 1 6 ack 40 ------- 0 1.266 6.53 28 6643
+ 0.203736 1 6 ack 40 ------- 0 16.826 20.589 1 4873
- 0.203736 1 6 ack 40 ------- 0 16.826 20.589 1 4873
+ 0.203992 1 6 ack 40 ------- 0 16.826 20.589 2 5055
- 0.203992 1 6 ack 40 ------- 0 16.826 20.589 2 5055
r 0.204841 1 6 ack 40 ------- 0 1.266 6.53 23 6368
+ 0.204928 1 6 ack 40 ------- 0 1.357 9.87 11 6686
- 0.204928 1 6 ack 40 ------- 0 1.357 9.87 11 6686