+ 0.00729 25 20 rtProtoDV 26 ------- 0 25.773 20.1475 -1 171
- 0.00729 25 20 rtProtoDV 26 ------- 0 25.773 20.1475 -1 171
+ 0.010617 25 20 rtProtoDV 26 ------- 0 25.773 20.1475 -1 331
- 0.010617 25 20 rtProtoDV 26 ------- 0 25.773 20.1475 -1 331
+ 0.011082 25 20 rtProtoDV 26 ------- 0 25.773 20.1475 -1 371
- 0.011082 25 20 rtProtoDV 26 ------- 0 25.773 20.1475 -1 371
+ 0.011449 25 20 rtProtoDV 26 ------- 0 25.773 20.1475 -1 392
- 0.011449 25 20 rtProtoDV 26 ------- 0 25.773 20.1475 -1 392
+ 0.013061 25 20 rtProtoDV 26 ------- 0 25.773 20.1475 -1 476
- 0.013061 25 20 rtProtoDV 26 ------- 0 25.773 20.1475 -1 476
+ 0.015773 25 20 rtProtoDV 26 ------- 0 25.773 20.1475 -1 583
- 0.015773 25 20 rtProtoDV 26 ------- 0 25.773 20.1475 -1 583
+ 0.016763 25 20 rtProtoDV 26 ------- 0 25.773 20.1475 -1 629
- 0.016763 25 20 rtProtoDV 26 ------- 0 25.773 20.1475 -1 629
+ 0.017916 25 20 rtProtoDV 26 ------- 0 25.773 20.1475 -1 676
- 0.017916 25 20 rtProtoDV 26 ------- 0 25.773 20.1475 -1 676
r 0.018114 25 20 rtProtoDV 26 ------- 0 25.773 20.1475 -1 171
+ 0.019255 25 20 rtProtoDV 26 ------- 0 25.773 20.1475 -1 725
- 0.019255 25 20 rtProtoDV 26 ------- 0 25.773 20.1475 -1 725
r 0.02144 25 20 rtProtoDV 26 ------- 0 25.773 20.1475 -1 331
r 0.021906 25 20 rtProtoDV 26 ------- 0 25.773 20.1475 -1 371
r 0.022273 25 20 rtProtoDV 26 ------- 0 25.773 20.1475 -1 392
r 0.023885 25 20 rtProtoDV 26 ------- 0 25.773 20.1475 -1 476
r 0.026596 25 20 rtProtoDV 26 ------- 0 25.773 20.1475 -1 583
r 0.027587 25 20 rtProtoDV 26 ------- 0 25.773 20.1475 -1 629
r 0.02874 25 20 rtProtoDV 26 ------- 0 25.773 20.1475 -1 676
+ 0.029085 25 20 ack 40 ------- 0 25.585 20.1453 0 972
- 0.029085 25 20 ack 40 ------- 0 25.585 20.1453 0 972
r 0.030079 25 20 rtProtoDV 26 ------- 0 25.773 20.1475 -1 725
r 0.039954 25 20 ack 40 ------- 0 25.585 20.1453 0 972
+ 0.042485 25 20 tcp 40 ------- 0 12.1212 20.1050 0 1040
- 0.042485 25 20 tcp 40 ------- 0 12.1212 20.1050 0 1040
+ 0.042995 25 20 rtProtoDV 26 ------- 0 25.773 20.1475 -1 1310
- 0.042995 25 20 rtProtoDV 26 ------- 0 25.773 20.1475 -1 1310
+ 0.044981 25 20 tcp 40 ------- 0 11.1381 20.975 0 767
- 0.044981 25 20 tcp 40 ------- 0 11.1381 20.975 0 767
+ 0.050877 25 20 ack 40 ------- 0 1.840 20.55 0 1113
- 0.050877 25 20 ack 40 ------- 0 1.840 20.55 0 1113
+ 0.050909 25 20 ack 40 ------- 0 1.872 20.87 0 1115
- 0.051005 25 20 ack 40 ------- 0 1.872 20.87 0 1115
r 0.053354 25 20 tcp 40 ------- 0 12.1212 20.1050 0 1040
r 0.053819 25 20 rtProtoDV 26 ------- 0 25.773 20.1475 -1 1310
+ 0.055622 25 20 ack 40 ------- 0 25.585 20.1453 1 1634
- 0.055622 25 20 ack 40 ------- 0 25.585 20.1453 1 1634
r 0.05585 25 20 tcp 40 ------- 0 11.1381 20.975 0 767
+ 0.06055 25 20 ack 40 ------- 0 25.585 20.1453 2 1768
- 0.06055 25 20 ack 40 ------- 0 25.585 20.1453 2 1768
+ 0.061653 25 20 tcp 40 ------- 0 1.1863 20.743 0 1370
- 0.061653 25 20 tcp 40 ------- 0 1.1863 20.743 0 1370
r 0.061746 25 20 ack 40 ------- 0 1.840 20.55 0 1113
r 0.061874 25 20 ack 40 ------- 0 1.872 20.87 0 1115
r 0.066491 25 20 ack 40 ------- 0 25.585 20.1453 1 1634
+ 0.067189 25 20 tcp 40 ------- 0 12.1177 20.1015 0 1336
- 0.067189 25 20 tcp 40 ------- 0 12.1177 20.1015 0 1336
+ 0.069417 25 20 ack 40 ------- 0 25.563 20.1431 0 2023
- 0.069417 25 20 ack 40 ------- 0 25.563 20.1431 0 2023
r 0.071419 25 20 ack 40 ------- 0 25.585 20.1453 2 1768
r 0.072522 25 20 tcp 40 ------- 0 1.1863 20.743 0 1370
+ 0.074677 25 20 tcp 40 ------- 0 12.1174 20.1012 0 1435
- 0.074677 25 20 tcp 40 ------- 0 12.1174 20.1012 0 1435
r 0.078058 25 20 tcp 40 ------- 0 12.1177 20.1015 0 1336
r 0.080286 25 20 ack 40 ------- 0 25.563 20.1431 0 2023
+ 0.083354 25 20 tcp 40 ------- 0 13.1461 20.1103 0 1366
- 0.083354 25 20 tcp 40 ------- 0 13.1461 20.1103 0 1366
r 0.085546 25 20 tcp 40 ------- 0 12.1174 20.1012 0 1435
r 0.094223 25 20 tcp 40 ------- 0 13.1461 20.1103 0 1366
+ 0.096796 25 20 ack 40 ------- 0 16.826 20.589 0 1727
- 0.096796 25 20 ack 40 ------- 0 16.826 20.589 0 1727
+ 0.09751 25 20 ack 40 ------- 0 25.585 20.1453 3 2954
- 0.09751 25 20 ack 40 ------- 0 25.585 20.1453 3 2954
+ 0.10193 25 20 ack 40 ------- 0 14.1119 20.551 0 1651
- 0.10193 25 20 ack 40 ------- 0 14.1119 20.551 0 1651
+ 0.102438 25 20 ack 40 ------- 0 25.585 20.1453 4 3142
- 0.102438 25 20 ack 40 ------- 0 25.585 20.1453 4 3142
+ 0.104284 25 20 ack 40 ------- 0 1.882 20.97 0 2261
- 0.104284 25 20 ack 40 ------- 0 1.882 20.97 0 2261
+ 0.107494 25 20 ack 40 ------- 0 25.585 20.1453 5 3303
- 0.107494 25 20 ack 40 ------- 0 25.585 20.1453 5 3303
r 0.107665 25 20 ack 40 ------- 0 16.826 20.589 0 1727
r 0.108379 25 20 ack 40 ------- 0 25.585 20.1453 3 2954
+ 0.109244 25 20 ack 40 ------- 0 1.874 20.89 0 2375
- 0.109244 25 20 ack 40 ------- 0 1.874 20.89 0 2375
+ 0.112422 25 20 ack 40 ------- 0 25.585 20.1453 6 3461
- 0.112422 25 20 ack 40 ------- 0 25.585 20.1453 6 3461
r 0.112799 25 20 ack 40 ------- 0 14.1119 20.551 0 1651
r 0.113307 25 20 ack 40 ------- 0 25.585 20.1453 4 3142
r 0.115153 25 20 ack 40 ------- 0 1.882 20.97 0 2261
+ 0.117606 25 20 ack 40 ------- 0 25.563 20.1431 1 3593
- 0.117606 25 20 ack 40 ------- 0 25.563 20.1431 1 3593
r 0.118363 25 20 ack 40 ------- 0 25.585 20.1453 5 3303
r 0.120113 25 20 ack 40 ------- 0 1.874 20.89 0 2375
+ 0.122534 25 20 ack 40 ------- 0 25.563 20.1431 2 3755
- 0.122534 25 20 ack 40 ------- 0 25.563 20.1431 2 3755
r 0.123291 25 20 ack 40 ------- 0 25.585 20.1453 6 3461
+ 0.123558 25 20 ack 40 ------- 0 25.599 20.1467 0 3786
- 0.123558 25 20 ack 40 ------- 0 25.599 20.1467 0 3786
+ 0.124188 25 20 ack 40 ------- 0 6.782 20.198 0 3067
- 0.124188 25 20 ack 40 ------- 0 6.782 20.198 0 3067
+ 0.12422 25 20 ack 40 ------- 0 6.808 20.224 0 3068
- 0.124316 25 20 ack 40 ------- 0 6.808 20.224 0 3068
+ 0.126716 25 20 ack 40 ------- 0 10.731 20.308 0 2615
- 0.126716 25 20 ack 40 ------- 0 10.731 20.308 0 2615
r 0.128475 25 20 ack 40 ------- 0 25.563 20.1431 1 3593
+ 0.131676 25 20 ack 40 ------- 0 1.840 20.55 1 2887
- 0.131676 25 20 ack 40 ------- 0 1.840 20.55 1 2887
r 0.133403 25 20 ack 40 ------- 0 25.563 20.1431 2 3755
r 0.134427 25 20 ack 40 ------- 0 25.599 20.1467 0 3786
r 0.135057 25 20 ack 40 ------- 0 6.782 20.198 0 3067
r 0.135185 25 20 ack 40 ------- 0 6.808 20.224 0 3068
r 0.137585 25 20 ack 40 ------- 0 10.731 20.308 0 2615
+ 0.1379 25 20 ack 40 ------- 0 1.840 20.55 2 3059
- 0.1379 25 20 ack 40 ------- 0 1.840 20.55 2 3059
+ 0.138598 25 20 ack 40 ------- 0 25.585 20.1453 7 4268
- 0.138598 25 20 ack 40 ------- 0 25.585 20.1453 7 4268
r 0.142545 25 20 ack 40 ------- 0 1.840 20.55 1 2887
+ 0.143526 25 20 ack 40 ------- 0 25.585 20.1453 8 4428
- 0.143526 25 20 ack 40 ------- 0 25.585 20.1453 8 4428
+ 0.145071 25 20 tcp 1540 ------- 0 12.1212 20.1050 1 2897
- 0.145071 25 20 tcp 1540 ------- 0 12.1212 20.1050 1 2897
+ 0.147535 25 20 tcp 1540 ------- 0 12.1212 20.1050 2 2898
r 0.148769 25 20 ack 40 ------- 0 1.840 20.55 2 3059
r 0.149467 25 20 ack 40 ------- 0 25.585 20.1453 7 4268
- 0.149999 25 20 tcp 1540 ------- 0 12.1212 20.1050 2 2898
r 0.154395 25 20 ack 40 ------- 0 25.585 20.1453 8 4428
+ 0.158438 25 20 ack 40 ------- 0 25.585 20.1453 9 4954
- 0.158438 25 20 ack 40 ------- 0 25.585 20.1453 9 4954
+ 0.159004 25 20 ack 40 ------- 0 1.872 20.87 1 3272
- 0.159004 25 20 ack 40 ------- 0 1.872 20.87 1 3272
+ 0.159887 25 20 tcp 40 ------- 0 11.1379 20.973 0 2934
- 0.159887 25 20 tcp 40 ------- 0 11.1379 20.973 0 2934
+ 0.160268 25 20 ack 40 ------- 0 1.872 20.87 2 3385
- 0.160268 25 20 ack 40 ------- 0 1.872 20.87 2 3385
+ 0.1603 25 20 ack 40 ------- 0 1.896 20.111 0 3386
- 0.160396 25 20 ack 40 ------- 0 1.896 20.111 0 3386
r 0.160739 25 20 tcp 1540 ------- 0 12.1212 20.1050 1 2897
+ 0.161151 25 20 tcp 40 ------- 0 11.1385 20.979 0 2962
- 0.161151 25 20 tcp 40 ------- 0 11.1385 20.979 0 2962
+ 0.163366 25 20 ack 40 ------- 0 25.585 20.1453 10 5161
- 0.163366 25 20 ack 40 ------- 0 25.585 20.1453 10 5161
r 0.165667 25 20 tcp 1540 ------- 0 12.1212 20.1050 2 2898
r 0.169307 25 20 ack 40 ------- 0 25.585 20.1453 9 4954
r 0.169873 25 20 ack 40 ------- 0 1.872 20.87 1 3272
r 0.170755 25 20 tcp 40 ------- 0 11.1379 20.973 0 2934
r 0.171137 25 20 ack 40 ------- 0 1.872 20.87 2 3385
r 0.171265 25 20 ack 40 ------- 0 1.896 20.111 0 3386
r 0.172019 25 20 tcp 40 ------- 0 11.1385 20.979 0 2962
+ 0.173535 25 20 tcp 1540 ------- 0 11.1381 20.975 1 3211
- 0.173535 25 20 tcp 1540 ------- 0 11.1381 20.975 1 3211
r 0.174235 25 20 ack 40 ------- 0 25.585 20.1453 10 5161
+ 0.177676 25 20 ack 40 ------- 0 6.837 20.253 0 4039
+ 0.177708 25 20 ack 40 ------- 0 6.815 20.231 0 4043
+ 0.17815 25 20 ack 40 ------- 0 25.585 20.1453 11 5755
- 0.178463 25 20 ack 40 ------- 0 6.837 20.253 0 4039
- 0.178591 25 20 ack 40 ------- 0 6.815 20.231 0 4043
- 0.178719 25 20 ack 40 ------- 0 25.585 20.1453 11 5755
+ 0.183078 25 20 ack 40 ------- 0 25.585 20.1453 12 5906
- 0.183078 25 20 ack 40 ------- 0 25.585 20.1453 12 5906
+ 0.187692 25 20 tcp 40 ------- 0 9.1271 20.898 0 4046
- 0.187692 25 20 tcp 40 ------- 0 9.1271 20.898 0 4046
+ 0.188988 25 20 ack 40 ------- 0 9.928 20.275 0 4163
- 0.188988 25 20 ack 40 ------- 0 9.928 20.275 0 4163
r 0.189203 25 20 tcp 1540 ------- 0 11.1381 20.975 1 3211
r 0.189331 25 20 ack 40 ------- 0 6.837 20.253 0 4039
r 0.189459 25 20 ack 40 ------- 0 6.815 20.231 0 4043
r 0.189587 25 20 ack 40 ------- 0 25.585 20.1453 11 5755
+ 0.190284 25 20 tcp 40 ------- 0 10.974 20.928 0 3966
- 0.190284 25 20 tcp 40 ------- 0 10.974 20.928 0 3966
r 0.193947 25 20 ack 40 ------- 0 25.585 20.1453 12 5906
+ 0.19398 25 20 tcp 1540 ------- 0 1.1863 20.743 1 3977
- 0.19398 25 20 tcp 1540 ------- 0 1.1863 20.743 1 3977
+ 0.195212 25 20 tcp 1540 ------- 0 1.1863 20.743 2 3978
+ 0.197295 25 20 tcp 40 ------- 0 11.1374 20.968 0 4522
+ 0.19799 25 20 ack 40 ------- 0 25.585 20.1453 13 6425
r 0.198561 25 20 tcp 40 ------- 0 9.1271 20.898 0 4046
- 0.198908 25 20 tcp 1540 ------- 0 1.1863 20.743 2 3978
+ 0.19894 25 20 tcp 40 ------- 0 1.1871 20.751 0 4405
+ 0.199791 25 20 ack 40 ------- 0 14.1037 20.469 0 4833
r 0.199857 25 20 ack 40 ------- 0 9.928 20.275 0 4163
r 0.201153 25 20 tcp 40 ------- 0 10.974 20.928 0 3966
+ 0.201468 25 20 tcp 40 ------- 0 10.969 20.923 0 4629
+ 0.202918 25 20 ack 40 ------- 0 25.585 20.1453 14 6623
- 0.203836 25 20 tcp 40 ------- 0 11.1374 20.968 0 4522
- 0.203964 25 20 ack 40 ------- 0 25.585 20.1453 13 6425
- 0.204092 25 20 tcp 40 ------- 0 1.1871 20.751 0 4405
- 0.20422 25 20 ack 40 ------- 0 14.1037 20.469 0 4833
- 0.204348 25 20 tcp 40 ------- 0 10.969 20.923 0 4629
- 0.204476 25 20 ack 40 ------- 0 25.585 20.1453 14 6623
+ 0.205983 25 20 tcp 40 ------- 0 13.1470 20.1112 0 4999
- 0.205983 25 20 tcp 40 ------- 0 13.1470 20.1112 0 4999
+ 0.207215 25 20 tcp 1540 ------- 0 12.1177 20.1015 1 4976
- 0.207215 25 20 tcp 1540 ------- 0 12.1177 20.1015 1 4976
+ 0.207846 25 20 ack 40 ------- 0 25.563 20.1431 3 6791
r 0.209649 25 20 tcp 1540 ------- 0 1.1863 20.743 1 3977
+ 0.209679 25 20 tcp 1540 ------- 0 12.1177 20.1015 2 4977
- 0.212143 25 20 ack 40 ------- 0 25.563 20.1431 3 6791
- 0.212271 25 20 tcp 1540 ------- 0 12.1177 20.1015 2 4977
+ 0.212774 25 20 ack 40 ------- 0 25.563 20.1431 4 6946
r 0.214577 25 20 tcp 1540 ------- 0 1.1863 20.743 2 3978
r 0.214705 25 20 tcp 40 ------- 0 11.1374 20.968 0 4522
r 0.214833 25 20 ack 40 ------- 0 25.585 20.1453 13 6425
r 0.214961 25 20 tcp 40 ------- 0 1.1871 20.751 0 4405
r 0.215089 25 20 ack 40 ------- 0 14.1037 20.469 0 4833
r 0.215217 25 20 tcp 40 ------- 0 10.969 20.923 0 4629
r 0.215345 25 20 ack 40 ------- 0 25.585 20.1453 14 6623
r 0.216851 25 20 tcp 40 ------- 0 13.1470 20.1112 0 4999
+ 0.217103 25 20 tcp 1540 ------- 0 12.1174 20.1012 1 5291
- 0.217199 25 20 ack 40 ------- 0 25.563 20.1431 4 6946
- 0.217327 25 20 tcp 1540 ------- 0 12.1174 20.1012 1 5291
+ 0.21783 25 20 ack 40 ------- 0 25.563 20.1431 5 7140
+ 0.219567 25 20 tcp 1540 ------- 0 12.1174 20.1012 2 5292
+ 0.222095 25 20 ack 40 ------- 0 14.1057 20.489 0 5244
- 0.222255 25 20 ack 40 ------- 0 25.563 20.1431 5 7140
- 0.222383 25 20 tcp 1540 ------- 0 12.1174 20.1012 2 5292
+ 0.222758 25 20 ack 40 ------- 0 25.563 20.1431 6 7309
r 0.222883 25 20 tcp 1540 ------- 0 12.1177 20.1015 1 4976
r 0.223011 25 20 ack 40 ------- 0 25.563 20.1431 3 6791
- 0.227311 25 20 ack 40 ------- 0 14.1057 20.489 0 5244
- 0.227439 25 20 ack 40 ------- 0 25.563 20.1431 6 7309
+ 0.227686 25 20 ack 40 ------- 0 25.599 20.1467 1 7490
- 0.227686 25 20 ack 40 ------- 0 25.599 20.1467 1 7490
r 0.227939 25 20 tcp 1540 ------- 0 12.1177 20.1015 2 4977
r 0.228067 25 20 ack 40 ------- 0 25.563 20.1431 4 6946
+ 0.232015 25 20 ack 40 ------- 0 14.1119 20.551 1 5445
- 0.232015 25 20 ack 40 ------- 0 14.1119 20.551 1 5445
+ 0.232047 25 20 ack 40 ------- 0 14.1119 20.551 2 5678
- 0.232143 25 20 ack 40 ------- 0 14.1119 20.551 2 5678
+ 0.232614 25 20 ack 40 ------- 0 25.599 20.1467 2 7689
- 0.232614 25 20 ack 40 ------- 0 25.599 20.1467 2 7689
r 0.232995 25 20 tcp 1540 ------- 0 12.1174 20.1012 1 5291
+ 0.233058 25 20 rtProtoDV 26 ------- 0 25.773 20.1475 -1 7708
- 0.233058 25 20 rtProtoDV 26 ------- 0 25.773 20.1475 -1 7708
r 0.233123 25 20 ack 40 ------- 0 25.563 20.1431 5 7140
r 0.238051 25 20 tcp 1540 ------- 0 12.1174 20.1012 2 5292
r 0.238179 25 20 ack 40 ------- 0 14.1057 20.489 0 5244
r 0.238307 25 20 ack 40 ------- 0 25.563 20.1431 6 7309
r 0.238555 25 20 ack 40 ------- 0 25.599 20.1467 1 7490
+ 0.239535 25 20 ack 40 ------- 0 13.1060 20.446 0 6155
- 0.239535 25 20 ack 40 ------- 0 13.1060 20.446 0 6155
r 0.242883 25 20 ack 40 ------- 0 14.1119 20.551 1 5445
r 0.243011 25 20 ack 40 ------- 0 14.1119 20.551 2 5678
r 0.243483 25 20 ack 40 ------- 0 25.599 20.1467 2 7689
r 0.243882 25 20 rtProtoDV 26 ------- 0 25.773 20.1475 -1 7708
+ 0.248319 25 20 tcp 40 ------- 0 15.1346 20.1145 0 7073
- 0.248319 25 20 tcp 40 ------- 0 15.1346 20.1145 0 7073
r 0.250403 25 20 ack 40 ------- 0 13.1060 20.446 0 6155
r 0.259187 25 20 tcp 40 ------- 0 15.1346 20.1145 0 7073
+ 0.264545 25 20 ack 40 ------- 0 6.781 20.197 0 6580
- 0.264545 25 20 ack 40 ------- 0 6.781 20.197 0 6580
+ 0.266991 25 20 tcp 40 ------- 0 24.385 20.1370 0 7109
- 0.266991 25 20 tcp 40 ------- 0 24.385 20.1370 0 7109
+ 0.267265 25 20 ack 40 ------- 0 16.830 20.593 0 4447
- 0.267265 25 20 ack 40 ------- 0 16.830 20.593 0 4447
+ 0.267297 25 20 ack 40 ------- 0 16.826 20.589 1 4873
- 0.267393 25 20 ack 40 ------- 0 16.826 20.589 1 4873
+ 0.267457 25 20 ack 40 ------- 0 1.882 20.97 1 6845
- 0.267521 25 20 ack 40 ------- 0 1.882 20.97 1 6845
+ 0.267553 25 20 ack 40 ------- 0 1.882 20.97 2 6973
- 0.267649 25 20 ack 40 ------- 0 1.882 20.97 2 6973
+ 0.270145 25 20 tcp 40 ------- 0 1.1840 20.720 0 7392
- 0.270145 25 20 tcp 40 ------- 0 1.1840 20.720 0 7392
+ 0.271409 25 20 ack 40 ------- 0 1.874 20.89 1 7440
- 0.271409 25 20 ack 40 ------- 0 1.874 20.89 1 7440
r 0.275414 25 20 ack 40 ------- 0 6.781 20.197 0 6580
+ 0.276529 25 20 ack 40 ------- 0 6.782 20.198 1 8138
- 0.276529 25 20 ack 40 ------- 0 6.782 20.198 1 8138
r 0.277859 25 20 tcp 40 ------- 0 24.385 20.1370 0 7109
r 0.278134 25 20 ack 40 ------- 0 16.830 20.593 0 4447
r 0.278262 25 20 ack 40 ------- 0 16.826 20.589 1 4873
r 0.27839 25 20 ack 40 ------- 0 1.882 20.97 1 6845
r 0.278518 25 20 ack 40 ------- 0 1.882 20.97 2 6973
+ 0.280321 25 20 ack 40 ------- 0 6.782 20.198 2 8308
- 0.280321 25 20 ack 40 ------- 0 6.782 20.198 2 8308
r 0.281014 25 20 tcp 40 ------- 0 1.1840 20.720 0 7392
+ 0.281681 25 20 ack 40 ------- 0 6.808 20.224 1 8522
- 0.281681 25 20 ack 40 ------- 0 6.808 20.224 1 8522
r 0.282278 25 20 ack 40 ------- 0 1.874 20.89 1 7440
+ 0.284241 25 20 ack 40 ------- 0 6.808 20.224 2 8656
- 0.284241 25 20 ack 40 ------- 0 6.808 20.224 2 8656
+ 0.285665 25 20 ack 40 ------- 0 6.817 20.233 0 9067
- 0.285665 25 20 ack 40 ------- 0 6.817 20.233 0 9067
+ 0.287334 25 20 ack 40 ------- 0 25.585 20.1453 15 9765
- 0.287334 25 20 ack 40 ------- 0 25.585 20.1453 15 9765
r 0.287398 25 20 ack 40 ------- 0 6.782 20.198 1 8138
r 0.29119 25 20 ack 40 ------- 0 6.782 20.198 2 8308
+ 0.292262 25 20 ack 40 ------- 0 25.585 20.1453 16 9936
- 0.292262 25 20 ack 40 ------- 0 25.585 20.1453 16 9936
r 0.29255 25 20 ack 40 ------- 0 6.808 20.224 1 8522
r 0.29511 25 20 ack 40 ------- 0 6.808 20.224 2 8656
r 0.296534 25 20 ack 40 ------- 0 6.817 20.233 0 9067
+ 0.297318 25 20 ack 40 ------- 0 25.585 20.1453 17 10186
- 0.297318 25 20 ack 40 ------- 0 25.585 20.1453 17 10186
r 0.298203 25 20 ack 40 ------- 0 25.585 20.1453 15 9765
+ 0.301745 25 20 tcp 40 ------- 0 16.1041 20.1156 0 6593
- 0.301745 25 20 tcp 40 ------- 0 16.1041 20.1156 0 6593
+ 0.302246 25 20 ack 40 ------- 0 25.585 20.1453 18 10378
- 0.302246 25 20 ack 40 ------- 0 25.585 20.1453 18 10378
r 0.303131 25 20 ack 40 ------- 0 25.585 20.1453 16 9936
+ 0.307558 25 20 ack 40 ------- 0 25.585 20.1453 19 10597
- 0.307558 25 20 ack 40 ------- 0 25.585 20.1453 19 10597
+ 0.307937 25 20 tcp 40 ------- 0 10.996 20.950 0 6822
- 0.307937 25 20 tcp 40 ------- 0 10.996 20.950 0 6822
r 0.308187 25 20 ack 40 ------- 0 25.585 20.1453 17 10186
+ 0.312486 25 20 ack 40 ------- 0 25.585 20.1453 20 10799
- 0.312486 25 20 ack 40 ------- 0 25.585 20.1453 20 10799
r 0.312614 25 20 tcp 40 ------- 0 16.1041 20.1156 0 6593
r 0.313115 25 20 ack 40 ------- 0 25.585 20.1453 18 10378
r 0.318427 25 20 ack 40 ------- 0 25.585 20.1453 19 10597
r 0.318806 25 20 tcp 40 ------- 0 10.996 20.950 0 6822
+ 0.323009 25 20 tcp 40 ------- 0 1.1864 20.744 0 9667
- 0.323009 25 20 tcp 40 ------- 0 1.1864 20.744 0 9667
r 0.323355 25 20 ack 40 ------- 0 25.585 20.1453 20 10799
r 0.333878 25 20 tcp 40 ------- 0 1.1864 20.744 0 9667
+ 0.343855 25 20 tcp 40 ------- 0 12.1211 20.1049 0 9786
- 0.343855 25 20 tcp 40 ------- 0 12.1211 20.1049 0 9786
+ 0.347238 25 20 ack 40 ------- 0 25.585 20.1453 21 12214
- 0.347238 25 20 ack 40 ------- 0 25.585 20.1453 21 12214
+ 0.348879 25 20 tcp 40 ------- 0 15.1344 20.1143 0 10056
- 0.348879 25 20 tcp 40 ------- 0 15.1344 20.1143 0 10056
+ 0.352166 25 20 ack 40 ------- 0 25.585 20.1453 22 12417
- 0.352166 25 20 ack 40 ------- 0 25.585 20.1453 22 12417
r 0.354723 25 20 tcp 40 ------- 0 12.1211 20.1049 0 9786
+ 0.356657 25 20 tcp 40 ------- 0 16.1057 20.1172 0 8135
- 0.356657 25 20 tcp 40 ------- 0 16.1057 20.1172 0 8135
+ 0.357599 25 20 ack 40 ------- 0 12.875 20.385 0 10365
- 0.357599 25 20 ack 40 ------- 0 12.875 20.385 0 10365
r 0.358107 25 20 ack 40 ------- 0 25.585 20.1453 21 12214
+ 0.358863 25 20 tcp 1540 ---A--- 0 12.1212 20.1050 1 10524
- 0.358863 25 20 tcp 1540 ---A--- 0 12.1212 20.1050 1 10524
r 0.359747 25 20 tcp 40 ------- 0 15.1344 20.1143 0 10056
r 0.363035 25 20 ack 40 ------- 0 25.585 20.1453 22 12417
r 0.367526 25 20 tcp 40 ------- 0 16.1057 20.1172 0 8135
r 0.368467 25 20 ack 40 ------- 0 12.875 20.385 0 10365
+ 0.372518 25 20 ack 40 ------- 0 25.585 20.1453 22 13173
- 0.372518 25 20 ack 40 ------- 0 25.585 20.1453 22 13173
+ 0.372902 25 20 ack 40 ------- 0 25.604 20.1472 0 13199
- 0.372902 25 20 ack 40 ------- 0 25.604 20.1472 0 13199
r 0.374531 25 20 tcp 1540 ---A--- 0 12.1212 20.1050 1 10524
r 0.383387 25 20 ack 40 ------- 0 25.585 20.1453 22 13173
r 0.383771 25 20 ack 40 ------- 0 25.604 20.1472 0 13199
+ 0.385151 25 20 tcp 40 ------- 0 24.389 20.1374 0 10626
- 0.385151 25 20 tcp 40 ------- 0 24.389 20.1374 0 10626
+ 0.388481 25 20 ack 40 ------- 0 10.731 20.308 1 9410
- 0.388481 25 20 ack 40 ------- 0 10.731 20.308 1 9410
+ 0.388577 25 20 ack 40 ------- 0 10.731 20.308 2 9650
- 0.388609 25 20 ack 40 ------- 0 10.731 20.308 2 9650
+ 0.390175 25 20 tcp 1540 ------- 0 12.1212 20.1050 2 12240
- 0.390175 25 20 tcp 1540 ------- 0 12.1212 20.1050 2 12240
+ 0.391407 25 20 tcp 1540 ------- 0 12.1212 20.1050 3 12241
+ 0.392337 25 20 ack 40 ------- 0 6.833 20.249 0 12676
+ 0.392639 25 20 tcp 1540 ------- 0 12.1212 20.1050 4 12243
- 0.395103 25 20 tcp 1540 ------- 0 12.1212 20.1050 3 12241
r 0.396019 25 20 tcp 40 ------- 0 24.389 20.1374 0 10626
r 0.39935 25 20 ack 40 ------- 0 10.731 20.308 1 9410
r 0.399478 25 20 ack 40 ------- 0 10.731 20.308 2 9650
- 0.400031 25 20 ack 40 ------- 0 6.833 20.249 0 12676
- 0.400159 25 20 tcp 1540 ------- 0 12.1212 20.1050 4 12243
+ 0.402321 25 20 tcp 40 ------- 0 16.1051 20.1166 0 9826
+ 0.404849 25 20 ack 40 ------- 0 6.837 20.253 1 12973
- 0.405087 25 20 tcp 40 ------- 0 16.1051 20.1166 0 9826
- 0.405215 25 20 ack 40 ------- 0 6.837 20.253 1 12973
r 0.405843 25 20 tcp 1540 ------- 0 12.1212 20.1050 2 12240
r 0.410771 25 20 tcp 1540 ------- 0 12.1212 20.1050 3 12241
r 0.410899 25 20 ack 40 ------- 0 6.833 20.249 0 12676
+ 0.411041 25 20 ack 40 ------- 0 6.837 20.253 2 13108
- 0.411041 25 20 ack 40 ------- 0 6.837 20.253 2 13108
r 0.415827 25 20 tcp 1540 ------- 0 12.1212 20.1050 4 12243
r 0.415955 25 20 tcp 40 ------- 0 16.1051 20.1166 0 9826
+ 0.416033 25 20 ack 40 ------- 0 1.872 20.87 3 12959
- 0.416033 25 20 ack 40 ------- 0 1.872 20.87 3 12959
r 0.416083 25 20 ack 40 ------- 0 6.837 20.253 1 12973
+ 0.416097 25 20 ack 40 ------- 0 6.815 20.231 1 13322
+ 0.416129 25 20 ack 40 ------- 0 1.872 20.87 4 12999
- 0.416161 25 20 ack 40 ------- 0 6.815 20.231 1 13322
- 0.416289 25 20 ack 40 ------- 0 1.872 20.87 4 12999
+ 0.420017 25 20 ack 40 ------- 0 1.872 20.87 5 13203
- 0.420017 25 20 ack 40 ------- 0 1.872 20.87 5 13203
+ 0.421313 25 20 ack 40 ------- 0 1.872 20.87 6 13256
- 0.421313 25 20 ack 40 ------- 0 1.872 20.87 6 13256
r 0.42191 25 20 ack 40 ------- 0 6.837 20.253 2 13108
+ 0.424831 25 20 ack 40 ------- 0 15.1213 20.569 0 13355
- 0.424831 25 20 ack 40 ------- 0 15.1213 20.569 0 13355
r 0.426902 25 20 ack 40 ------- 0 1.872 20.87 3 12959
r 0.42703 25 20 ack 40 ------- 0 6.815 20.231 1 13322
r 0.427158 25 20 ack 40 ------- 0 1.872 20.87 4 12999
+ 0.428801 25 20 ack 40 ------- 0 1.896 20.111 1 13415
- 0.428801 25 20 ack 40 ------- 0 1.896 20.111 1 13415
r 0.430886 25 20 ack 40 ------- 0 1.872 20.87 5 13203
r 0.432182 25 20 ack 40 ------- 0 1.872 20.87 6 13256
+ 0.433958 25 20 ack 40 ------- 0 25.585 20.1453 22 15667
- 0.433958 25 20 ack 40 ------- 0 25.585 20.1453 22 15667
r 0.435699 25 20 ack 40 ------- 0 15.1213 20.569 0 13355
+ 0.438639 25 20 tcp 1540 ------- 0 15.1346 20.1145 1 13901
- 0.438639 25 20 tcp 1540 ------- 0 15.1346 20.1145 1 13901
+ 0.438753 25 20 ack 40 ------- 0 1.896 20.111 2 13822
+ 0.438886 25 20 ack 40 ------- 0 25.585 20.1453 22 15852
r 0.43967 25 20 ack 40 ------- 0 1.896 20.111 1 13415
- 0.443567 25 20 ack 40 ------- 0 1.896 20.111 2 13822
- 0.443695 25 20 ack 40 ------- 0 25.585 20.1453 22 15852
+ 0.443873 25 20 ack 40 ------- 0 6.781 20.197 2 14584
- 0.443873 25 20 ack 40 ------- 0 6.781 20.197 2 14584
+ 0.44407 25 20 ack 40 ------- 0 25.585 20.1453 22 16057
- 0.44407 25 20 ack 40 ------- 0 25.585 20.1453 22 16057
r 0.444827 25 20 ack 40 ------- 0 25.585 20.1453 22 15667
+ 0.446127 25 20 ack 40 ------- 0 12.871 20.381 0 14545
- 0.446127 25 20 ack 40 ------- 0 12.871 20.381 0 14545
+ 0.446159 25 20 ack 40 ------- 0 12.859 20.369 0 14547
- 0.446255 25 20 ack 40 ------- 0 12.859 20.369 0 14547
+ 0.447391 25 20 tcp 1540 ------- 0 12.1177 20.1015 3 14549
- 0.447391 25 20 tcp 1540 ------- 0 12.1177 20.1015 3 14549
+ 0.448623 25 20 tcp 1540 ------- 0 12.1177 20.1015 4 14550
+ 0.448998 25 20 ack 40 ------- 0 25.585 20.1453 22 16274
+ 0.450129 25 20 tcp 1540 ---A--- 0 1.1863 20.743 1 14268
+ 0.451087 25 20 tcp 1540 ------- 0 12.1177 20.1015 5 14643
- 0.452319 25 20 tcp 1540 ------- 0 12.1177 20.1015 4 14550
+ 0.452319 25 20 tcp 1540 ------- 0 12.1177 20.1015 6 14644
+ 0.452351 25 20 ack 40 ------- 0 12.821 20.331 0 14646
+ 0.453926 25 20 ack 40 ------- 0 25.585 20.1453 22 16462
r 0.454307 25 20 tcp 1540 ------- 0 15.1346 20.1145 1 13901
r 0.454435 25 20 ack 40 ------- 0 1.896 20.111 2 13822
r 0.454563 25 20 ack 40 ------- 0 25.585 20.1453 22 15852
r 0.454742 25 20 ack 40 ------- 0 6.781 20.197 2 14584
+ 0.454815 25 20 tcp 1540 ------- 0 12.1174 20.1012 3 14651
r 0.454939 25 20 ack 40 ------- 0 25.585 20.1453 22 16057
+ 0.456047 25 20 tcp 1540 ------- 0 12.1174 20.1012 4 14652
r 0.456995 25 20 ack 40 ------- 0 12.871 20.381 0 14545
r 0.457123 25 20 ack 40 ------- 0 12.859 20.369 0 14547
- 0.457247 25 20 ack 40 ------- 0 25.585 20.1453 22 16274
- 0.457375 25 20 tcp 1540 ---A--- 0 1.1863 20.743 1 14268
+ 0.458575 25 20 tcp 1540 ------- 0 12.1174 20.1012 5 14653
- 0.462303 25 20 tcp 1540 ------- 0 12.1177 20.1015 5 14643
+ 0.462495 25 20 ack 40 ------- 0 14.1119 20.551 3 15283
+ 0.462673 25 20 ack 40 ------- 0 6.782 20.198 3 15174
r 0.463059 25 20 tcp 1540 ------- 0 12.1177 20.1015 3 14549
+ 0.46455 25 20 ack 40 ------- 0 25.585 20.1453 22 16911
+ 0.466255 25 20 tcp 40 ------- 0 13.1487 20.1129 0 15628
d 0.466255 25 20 tcp 40 ------- 0 13.1487 20.1129 0 15628
+ 0.466287 25 20 ack 40 ------- 0 14.1119 20.551 4 15655
d 0.466287 25 20 ack 40 ------- 0 14.1119 20.551 4 15655
+ 0.466319 25 20 ack 40 ------- 0 14.1089 20.521 0 15662
d 0.466319 25 20 ack 40 ------- 0 14.1089 20.521 0 15662
+ 0.466351 25 20 ack 40 ------- 0 14.1093 20.525 0 15671
d 0.466351 25 20 ack 40 ------- 0 14.1093 20.525 0 15671
+ 0.466383 25 20 ack 40 ------- 0 14.1058 20.490 0 15677
d 0.466383 25 20 ack 40 ------- 0 14.1058 20.490 0 15677
+ 0.466465 25 20 tcp 1540 ------- 0 9.1271 20.898 1 13669
d 0.466465 25 20 tcp 1540 ------- 0 9.1271 20.898 1 13669
- 0.467231 25 20 tcp 1540 ------- 0 12.1177 20.1015 6 14644
+ 0.467729 25 20 tcp 1540 ------- 0 9.1271 20.898 2 13670
r 0.467987 25 20 tcp 1540 ------- 0 12.1177 20.1015 4 14550
r 0.468115 25 20 ack 40 ------- 0 25.585 20.1453 22 16274
+ 0.469606 25 20 ack 40 ------- 0 25.585 20.1453 22 17121
d 0.469606 25 20 ack 40 ------- 0 25.585 20.1453 22 17121
+ 0.470225 25 20 ack 40 ------- 0 6.808 20.224 3 15489
d 0.470225 25 20 ack 40 ------- 0 6.808 20.224 3 15489
+ 0.471489 25 20 ack 40 ------- 0 1.829 20.44 0 15206
d 0.471489 25 20 ack 40 ------- 0 1.829 20.44 0 15206
- 0.472159 25 20 ack 40 ------- 0 12.821 20.331 0 14646
- 0.472287 25 20 ack 40 ------- 0 25.585 20.1453 22 16462
- 0.472415 25 20 tcp 1540 ------- 0 12.1174 20.1012 3 14651
r 0.473043 25 20 tcp 1540 ---A--- 0 1.1863 20.743 1 14268
+ 0.474049 25 20 ack 40 ------- 0 1.874 20.89 3 15259
+ 0.475345 25 20 ack 40 ------- 0 6.808 20.224 4 15830
+ 0.476641 25 20 tcp 40 ------- 0 10.978 20.932 0 11312
+ 0.476705 25 20 ack 40 ------- 0 1.874 20.89 4 15412
d 0.476705 25 20 ack 40 ------- 0 1.874 20.89 4 15412
- 0.477343 25 20 tcp 1540 ------- 0 12.1174 20.1012 4 14652
r 0.477971 25 20 tcp 1540 ------- 0 12.1177 20.1015 5 14643
- 0.482271 25 20 tcp 1540 ------- 0 12.1174 20.1012 5 14653
r 0.482899 25 20 tcp 1540 ------- 0 12.1177 20.1015 6 14644
r 0.483027 25 20 ack 40 ------- 0 12.821 20.331 0 14646
r 0.483155 25 20 ack 40 ------- 0 25.585 20.1453 22 16462
- 0.487199 25 20 ack 40 ------- 0 14.1119 20.551 3 15283
- 0.487327 25 20 ack 40 ------- 0 6.782 20.198 3 15174
+ 0.487455 25 20 tcp 1540 ------- 0 11.1379 20.973 1 15470
- 0.487455 25 20 ack 40 ------- 0 25.585 20.1453 22 16911
- 0.487583 25 20 tcp 1540 ------- 0 9.1271 20.898 2 13670
r 0.488083 25 20 tcp 1540 ------- 0 12.1174 20.1012 3 14651
+ 0.488687 25 20 tcp 1540 ------- 0 11.1379 20.973 2 15471
- 0.492511 25 20 ack 40 ------- 0 1.874 20.89 3 15259
- 0.492639 25 20 ack 40 ------- 0 6.808 20.224 4 15830
- 0.492767 25 20 tcp 40 ------- 0 10.978 20.932 0 11312
- 0.492895 25 20 tcp 1540 ------- 0 11.1379 20.973 1 15470
r 0.493011 25 20 tcp 1540 ------- 0 12.1174 20.1012 4 14652
+ 0.49463 25 20 ack 40 ------- 0 25.604 20.1472 1 18145
- 0.497823 25 20 tcp 1540 ------- 0 11.1379 20.973 2 15471
r 0.497939 25 20 tcp 1540 ------- 0 12.1174 20.1012 5 14653
r 0.498067 25 20 ack 40 ------- 0 14.1119 20.551 3 15283
r 0.498195 25 20 ack 40 ------- 0 6.782 20.198 3 15174
r 0.498323 25 20 ack 40 ------- 0 25.585 20.1453 22 16911
+ 0.499558 25 20 ack 40 ------- 0 25.604 20.1472 2 18362
+ 0.501985 25 20 ack 40 ------- 0 6.802 20.218 0 17022
- 0.502751 25 20 ack 40 ------- 0 25.604 20.1472 1 18145
- 0.502879 25 20 ack 40 ------- 0 25.604 20.1472 2 18362
- 0.503007 25 20 ack 40 ------- 0 6.802 20.218 0 17022
r 0.503251 25 20 tcp 1540 ------- 0 9.1271 20.898 2 13670
r 0.503379 25 20 ack 40 ------- 0 1.874 20.89 3 15259
+ 0.503471 25 20 tcp 1540 ------- 0 15.1344 20.1143 1 17044
- 0.503471 25 20 tcp 1540 ------- 0 15.1344 20.1143 1 17044
r 0.503507 25 20 ack 40 ------- 0 6.808 20.224 4 15830
r 0.503635 25 20 tcp 40 ------- 0 10.978 20.932 0 11312
+ 0.504703 25 20 tcp 1540 ------- 0 15.1344 20.1143 2 17045
- 0.508399 25 20 tcp 1540 ------- 0 15.1344 20.1143 2 17045
r 0.508563 25 20 tcp 1540 ------- 0 11.1379 20.973 1 15470
r 0.513491 25 20 tcp 1540 ------- 0 11.1379 20.973 2 15471
r 0.513619 25 20 ack 40 ------- 0 25.604 20.1472 1 18145
r 0.513747 25 20 ack 40 ------- 0 25.604 20.1472 2 18362
r 0.513875 25 20 ack 40 ------- 0 6.802 20.218 0 17022
r 0.519139 25 20 tcp 1540 ------- 0 15.1344 20.1143 1 17044
+ 0.519425 25 20 ack 40 ------- 0 16.854 20.617 0 12355
- 0.519425 25 20 ack 40 ------- 0 16.854 20.617 0 12355
+ 0.519457 25 20 tcp 40 ------- 0 1.1841 20.721 0 17459
+ 0.519519 25 20 ack 40 ------- 0 24.989 20.1407 0 15745
- 0.519553 25 20 tcp 40 ------- 0 1.1841 20.721 0 17459
- 0.519681 25 20 ack 40 ------- 0 24.989 20.1407 0 15745
r 0.524067 25 20 tcp 1540 ------- 0 15.1344 20.1143 2 17045
r 0.530294 25 20 ack 40 ------- 0 16.854 20.617 0 12355
r 0.530422 25 20 tcp 40 ------- 0 1.1841 20.721 0 17459
r 0.53055 25 20 ack 40 ------- 0 24.989 20.1407 0 15745
+ 0.534465 25 20 tcp 1540 ------- 0 1.1864 20.744 1 17809
- 0.534465 25 20 tcp 1540 ------- 0 1.1864 20.744 1 17809
+ 0.535729 25 20 tcp 1540 ------- 0 1.1864 20.744 2 17810
+ 0.535761 25 20 ack 40 ------- 0 1.873 20.88 0 17814
+ 0.535921 25 20 ack 40 ------- 0 1.840 20.55 3 17937
+ 0.535953 25 20 ack 40 ------- 0 1.849 20.64 0 17941
- 0.539393 25 20 tcp 1540 ------- 0 1.1864 20.744 2 17810
- 0.544321 25 20 ack 40 ------- 0 1.873 20.88 0 17814
- 0.544449 25 20 ack 40 ------- 0 1.840 20.55 3 17937
- 0.544577 25 20 ack 40 ------- 0 1.849 20.64 0 17941
+ 0.545583 25 20 tcp 1540 ------- 0 24.385 20.1370 1 16131
- 0.545583 25 20 tcp 1540 ------- 0 24.385 20.1370 1 16131